 Gaussian 03, Revision C.02,
 Gaussian 03:  AM64L-G03RevC.02 12-Jun-2004

 ----------------------------------------------------------------------
 #P UMP2/GEN Pseudo=read opt=(ts,noeig,readfc) freq scf=qc optcyc=90 #
 pop=full gfinput iop(6/7=3) nosym guess=read geom=checkpoint
 ----------------------------------------------------------------------

 Job
 ---
 Redundant internal coordinates taken from checkpoint file:
 ts.chk
 Charge =  0 Multiplicity = 2

 SCF Done:  E(UHF) =  -628.916207103     a.u. after    1 cycles
 E2 =    -0.6264545483D+00 EUMP2 =    -0.62954266165086D+03
 SCF Done:  E(UHF) =  -628.916466115     a.u. after    6 cycles
 E2 =    -0.6261862788D+00 EUMP2 =    -0.62954265239336D+03
 SCF Done:  E(UHF) =  -628.916526066     a.u. after    5 cycles
 E2 =    -0.6261164318D+00 EUMP2 =    -0.62954264249783D+03
 SCF Done:  E(UHF) =  -628.916558581     a.u. after    6 cycles
 E2 =    -0.6260813172D+00 EUMP2 =    -0.62954263989775D+03
 SCF Done:  E(UHF) =  -628.916680262     a.u. after    5 cycles
 E2 =    -0.6259537614D+00 EUMP2 =    -0.62954263402314D+03
 SCF Done:  E(UHF) =  -628.916862190     a.u. after    6 cycles
 E2 =    -0.6257758406D+00 EUMP2 =    -0.62954263803034D+03
 SCF Done:  E(UHF) =  -628.916394853     a.u. after    6 cycles
 E2 =    -0.6262203484D+00 EUMP2 =    -0.62954261520171D+03
 SCF Done:  E(UHF) =  -628.916810612     a.u. after    5 cycles
 E2 =    -0.6258292587D+00 EUMP2 =    -0.62954263987124D+03
 SCF Done:  E(UHF) =  -628.916798043     a.u. after    4 cycles
 E2 =    -0.6258424668D+00 EUMP2 =    -0.62954264051001D+03
 SCF Done:  E(UHF) =  -628.916769428     a.u. after    4 cycles
 E2 =    -0.6258709224D+00 EUMP2 =    -0.62954264035025D+03
 SCF Done:  E(UHF) =  -628.916820266     a.u. after    3 cycles
 E2 =    -0.6258205210D+00 EUMP2 =    -0.62954264078740D+03
 Optimization completed.
    -- Stationary point found.
 Normal termination of Gaussian 03 at Tue Feb 21 17:55:50 2012.

 ----------------------------------------------------------------------
 #P Geom=AllCheck Guess=Read SCRF=Check Test GenChk UMP2(FC)/ChkBas Fre
 q
 ----------------------------------------------------------------------

 Job
 ---
 Redundant internal coordinates taken from checkpoint file:
 ts.chk
 Charge =  0 Multiplicity = 2

                          Input orientation:
 ---------------------------------------------------------------------
 Center     Atomic     Atomic              Coordinates (Angstroms)
 Number     Number      Type              X           Y           Z
 ---------------------------------------------------------------------
    1          6             0       -0.008442   -0.004286   -0.166989
    2         53             0        0.003978    0.010926    2.511313
    3         53             0        0.016782    0.026363    5.201427
    4          1             0        1.052232   -0.131714   -0.304450
    5          1             0       -0.649335   -0.860917   -0.291912
    6          1             0       -0.430094    0.977279   -0.304484
 ---------------------------------------------------------------------

 SCF Done:  E(UHF) =  -628.916820266     a.u. after    1 cycles
 E2 =    -0.6258205210D+00 EUMP2 =    -0.62954264078740D+03

 Alpha  occ. eigenvalues --  -11.27729  -7.74085  -7.73088  -5.57264  -5.56708
 Alpha  occ. eigenvalues --   -5.56194  -5.56194  -5.55042  -5.55042  -2.30489
 Alpha  occ. eigenvalues --   -2.29797  -2.29797  -2.29329  -2.28821  -2.28821
 Alpha  occ. eigenvalues --   -2.28400  -2.28400  -2.27305  -2.27305  -0.99613
 Alpha  occ. eigenvalues --   -0.94354  -0.83328  -0.61815  -0.61815  -0.50197
 Alpha  occ. eigenvalues --   -0.42471  -0.42471  -0.37690  -0.34855  -0.34855
 Alpha virt. eigenvalues --    0.03550   0.13666   0.20131   0.20131   0.22961
 Alpha virt. eigenvalues --    0.29699   0.29702   0.30627   0.35209   0.35212
 Alpha virt. eigenvalues --    0.37071   0.37838   0.37839   0.39774   0.43026

  Beta  occ. eigenvalues --  -11.25760  -7.74197  -7.72767  -5.57923  -5.56111
  Beta  occ. eigenvalues --   -5.56111  -5.55793  -5.55007  -5.55007  -2.30685
  Beta  occ. eigenvalues --   -2.30045  -2.30045  -2.28870  -2.28431  -2.28431
  Beta  occ. eigenvalues --   -2.28312  -2.28312  -2.27298  -2.27298  -0.94881
  Beta  occ. eigenvalues --   -0.90562  -0.81955  -0.60516  -0.60515  -0.45353
  Beta  occ. eigenvalues --   -0.42198  -0.42198  -0.34496  -0.34496
  Beta virt. eigenvalues --   -0.01432   0.11871   0.16280   0.20541   0.20541
  Beta virt. eigenvalues --    0.23158   0.29802   0.29805   0.31031   0.35453
  Beta virt. eigenvalues --    0.35455   0.38250   0.38253   0.39213   0.43153

 Mulliken atomic charges:
              1
     1  C   -0.341852
     2  I   -0.010259
     3  I   -0.081105
     4  H    0.144407
     5  H    0.144410
     6  H    0.144399
 Sum of Mulliken charges=   0.00000

 Dipole moment (field-independent basis, Debye):
    X=    -0.0123    Y=    -0.0151    Z=    -2.6371  Tot=     2.6371
 Quadrupole moment (field-independent basis, Debye-Ang):
   XX=   -62.7554   YY=   -62.7556   ZZ=   -68.9627
   XY=     0.0001   XZ=    -0.0085   YZ=    -0.0273

  Exact polarizability:  54.371   0.003  54.372   0.504   0.611 161.399
 Approx polarizability:  59.083   0.002  59.084   0.273   0.330 116.895

 ******    1 imaginary frequencies (negative Signs) ******

                     1                      2                      3
                     A                      A                      A
 Frequencies --  -158.9330                35.8492                35.8626
 Red. masses --     7.1115                 5.4254                 5.4247
 Frc consts  --     0.1058                 0.0041                 0.0041
 IR Inten    --    60.8743                 1.1618                 1.1619

                     4                      5                      6
                     A                      A                      A
 Frequencies --   229.2344               421.7227               421.8325
 Red. masses --    19.6255                 1.0338                 1.0338
 Frc consts  --     0.6076                 0.1083                 0.1084
 IR Inten    --     4.5466                 0.3414                 0.3410

                     7                      8                      9
                     A                      A                      A
 Frequencies --   862.6112              1442.6182              1442.6390
 Red. masses --     1.1365                 1.0971                 1.0971
 Frc consts  --     0.4983                 1.3452                 1.3453
 IR Inten    --    26.5649                 3.7898                 3.7978

                    10                     11                     12
                     A                      A                      A
 Frequencies --  3155.8338              3342.5072              3342.5162
 Red. masses --     1.0103                 1.1174                 1.1174
 Frc consts  --     5.9283                 7.3557                 7.3557
 IR Inten    --    10.6232                 0.7568                 0.7576

 - Thermochemistry -
 -------------------
 Temperature   298.150 Kelvin.  Pressure   1.00000 Atm.
 Atom  1 has atomic number  6 and mass  12.00000

 Molecular mass:   268.82428 amu.
 Principal axes and moments of inertia in atomic units:
                           1         2         3
     EIGENVALUES --    12.334492477.073302477.07345
           X            0.00473   0.79542  -0.60604
           Y            0.00573   0.60601   0.79543
           Z            0.99997  -0.00723  -0.00169
 This molecule is an asymmetric top.
 Rotational symmetry number  1.
 Rotational temperatures (Kelvin)      7.02209     0.03497     0.03497
 Rotational constants (GHZ):         146.31669     0.72858     0.72858
    1 imaginary frequencies ignored.
 Zero-point vibrational energy      88124.3 (Joules/Mol)
                                   21.06221 (Kcal/Mol)
 Warning -- explicit consideration of   5 degrees of freedom as
           vibrations may cause significant error
 Vibrational temperatures:     51.58    51.60   329.82   606.76   606.92
          (Kelvin)           1241.10  2075.60  2075.63  4540.54  4809.12
                             4809.13

 Zero-point correction=                           0.033565 (Hartree/Particle)
 Thermal correction to Energy=                    0.039296
 Thermal correction to Enthalpy=                  0.040240
 Thermal correction to Gibbs Free Energy=         0.000009
 Sum of electronic and zero-point Energies=           -629.509076
 Sum of electronic and thermal Energies=              -629.503345
 Sum of electronic and thermal Enthalpies=            -629.502401
 Sum of electronic and thermal Free Energies=         -629.542632

                     E (Thermal)             CV                S
                      KCal/Mol        Cal/Mol-Kelvin    Cal/Mol-Kelvin
 Total                   24.658             15.304             84.673
 Electronic               0.000              0.000              1.377
 Translational            0.889              2.981             42.666
 Rotational               0.889              2.981             25.829
 Vibrational             22.881              9.343             14.801
 Vibration  1             0.594              1.982              5.476
 Vibration  2             0.594              1.982              5.475
 Vibration  3             0.652              1.796              1.885
 Vibration  4             0.784              1.423              0.886
 Vibration  5             0.784              1.423              0.886

 Optimization completed.
    -- Stationary point found.
 Normal termination of Gaussian 03 at Tue Feb 21 18:28:39 2012.
