 Output coordinates in angstroms (scale by  1.889725989 to convert to a.u.)

  No.       Tag          Charge          X              Y              Z
 ---- ---------------- ---------- -------------- -------------- --------------
    1 O                    8.0000     0.00000000     0.00000000     0.14142136
    2 H                    1.0000     0.70710678     0.00000000    -0.56568542
    3 H                    1.0000    -0.70710678     0.00000000    -0.56568542

         Total SCF energy =    -74.961171139359

 Vector    2  Occ=2.000000D+00  E=-1.262275D+00  Symmetry=a1

 Vector    3  Occ=2.000000D+00  E=-5.693767D-01  Symmetry=b1

 Vector    4  Occ=2.000000D+00  E=-4.807812D-01  Symmetry=a1

 Vector    5  Occ=2.000000D+00  E=-3.974915D-01  Symmetry=b2

 Vector    6  Occ=0.000000D+00  E= 5.825241D-01  Symmetry=a1

 Vector    7  Occ=0.000000D+00  E= 6.580765D-01  Symmetry=b1

       Multipole analysis of the density wrt the origin
       ------------------------------------------------

     L   x y z        total         open         nuclear
     -   - - -        -----         ----         -------
     0   0 0 0      0.000000      0.000000     10.000000

     1   1 0 0      0.000000      0.000000      0.000000
     1   0 1 0      0.000000      0.000000      0.000000
     1   0 0 1     -0.688329      0.000000      0.000000

     2   2 0 0     -3.556517      0.000000      3.571064
     2   1 1 0      0.000000      0.000000      0.000000
     2   1 0 1      0.000000      0.000000      0.000000
     2   0 2 0     -4.565013      0.000000      0.000000
     2   0 1 1      0.000000      0.000000      0.000000

 Total MP2 energy:            -75.003084499490370
         Total SCF energy =    -74.961170802505
         Total SCF energy =    -74.961130379762
         Total SCF energy =    -74.961143853847
         Total SCF energy =    -74.961169031057
         Total SCF energy =    -74.961169031057
         Total SCF energy =    -74.960664510894
         Total SCF energy =    -74.961610820245
         Total SCF energy =    -74.961170802505
         Total SCF energy =    -74.961143853847
         Total SCF energy =    -74.961130379762
         Total SCF energy =    -74.961169031057
         Total SCF energy =    -74.961169031057
         Total SCF energy =    -74.960664510894
         Total SCF energy =    -74.961610820245
         Total SCF energy =    -74.961171121649
         Total SCF energy =    -74.961137435956
         Total SCF energy =    -74.961137435956
         Total SCF energy =    -74.961168995761
         Total SCF energy =    -74.961169704531
         Total SCF energy =    -74.960664820178
         Total SCF energy =    -74.961611149523
         Total SCF energy =    -74.961171121649
         Total SCF energy =    -74.961137435956
         Total SCF energy =    -74.961137435956
         Total SCF energy =    -74.961169704531
         Total SCF energy =    -74.961168995761
         Total SCF energy =    -74.960664820178
         Total SCF energy =    -74.961611149523
         Total SCF energy =    -74.961123477575
         Total SCF energy =    -74.961089868242
         Total SCF energy =    -74.961089868242
         Total SCF energy =    -74.961121682660
         Total SCF energy =    -74.961121682660
         Total SCF energy =    -74.960610598472
         Total SCF energy =    -74.961570169016
         Total SCF energy =    -74.961218138410
         Total SCF energy =    -74.961184376093
         Total SCF energy =    -74.961184376093
         Total SCF energy =    -74.961216390440
         Total SCF energy =    -74.961216390440
         Total SCF energy =    -74.960718427847
         Total SCF energy =    -74.961651489417
         Total SCF energy =    -74.961154185878
         Total SCF energy =    -74.960659430656
         Total SCF energy =    -74.961591867561
         Total SCF energy =    -74.960706820632
         Total SCF energy =    -74.961482992860
         Total SCF energy =    -74.961253009744
         Total SCF energy =    -74.960953660689
         Total SCF energy =    -74.961187692685
         Total SCF energy =    -74.960730726493
         Total SCF energy =    -74.961526499563
         Total SCF energy =    -74.960699635497
         Total SCF energy =    -74.961618664905
         Total SCF energy =    -74.961290562857
         Total SCF energy =    -74.960983201319
         Total SCF energy =    -74.961171138066
         Total SCF energy =    -74.960679733321
         Total SCF energy =    -74.961605463486
         Total SCF energy =    -74.960718964924
         Total SCF energy =    -74.961504952711
         Total SCF energy =    -74.961271987144
         Total SCF energy =    -74.960968627769
         Total SCF energy =    -74.961171138066
         Total SCF energy =    -74.960679733321
         Total SCF energy =    -74.961605463486
         Total SCF energy =    -74.960718964924
         Total SCF energy =    -74.961504952711
         Total SCF energy =    -74.961271987144
         Total SCF energy =    -74.960968627769
         Total SCF energy =    -74.961194645082
         Total SCF energy =    -74.960702295106
         Total SCF energy =    -74.961629903616
         Total SCF energy =    -74.960747459564
         Total SCF energy =    -74.961523297952
         Total SCF energy =    -74.961292515738
         Total SCF energy =    -74.960995052882
         Total SCF energy =    -74.961147314649
         Total SCF energy =    -74.960690163890
         Total SCF energy =    -74.961486281052
         Total SCF energy =    -74.961251133618
         Total SCF energy =    -74.960941894596
         Total SCF energy =    -74.960656842607
         Total SCF energy =    -74.961580719201
 Zero-Point correction to Energy  =   14.574 kcal/mol  (  0.023224 au)
 Thermal correction to Energy     =   16.350 kcal/mol  (  0.026056 au)
 Thermal correction to Enthalpy   =   16.943 kcal/mol  (  0.027000 au)
 Total Entropy                    =   45.345 cal/mol-K
   - Translational                =   34.593 cal/mol-K (mol. weight =  18.0106)
   - Rotational                   =   10.752 cal/mol-K (symmetry #  =        2)
   - Vibrational                  =    0.001 cal/mol-K
   - Translational                  =    2.979 cal/mol-K
   - Rotational                     =    2.979 cal/mol-K
   - Vibrational                    =    0.008 cal/mol-K
 P.Frequency        0.00        0.00        0.00        0.00        0.00        0.00
 P.Frequency     2097.33     3964.11     4137.79
 Total times  cpu:        4.0s     wall:       13.4s
