 Output coordinates in angstroms (scale by  1.889725989 to convert to a.u.)

  No.       Tag          Charge          X              Y              Z
 ---- ---------------- ---------- -------------- -------------- --------------
    1 O                    8.0000     0.00000000     0.00000000    -0.14142136
    2 H                    1.0000     0.70710678     0.00000000     0.56568542
    3 H                    1.0000    -0.70710678     0.00000000     0.56568542

         Total DFT energy =      -75.318671485479

                       DFT Final Molecular Orbital Analysis
                       ------------------------------------

 Vector    1  Occ=2.000000D+00  E=-1.885405D+01

 Vector    2  Occ=2.000000D+00  E=-9.303800D-01

 Vector    3  Occ=2.000000D+00  E=-3.992500D-01

 Vector    4  Occ=2.000000D+00  E=-2.717241D-01

 Vector    5  Occ=2.000000D+00  E=-1.499478D-01

 Vector    6  Occ=0.000000D+00  E= 3.305010D-01

 Vector    7  Occ=0.000000D+00  E= 4.019089D-01

     Multipole analysis of the density
     ---------------------------------

     L   x y z        total         alpha         beta         nuclear
     -   - - -        -----         -----         ----         -------
     0   0 0 0     -0.000000     -5.000000     -5.000000     10.000000

     1   1 0 0     -0.000000     -0.000000     -0.000000      0.000000
     1   0 1 0      0.000000      0.000000      0.000000      0.000000
     1   0 0 1      0.658686      0.329343      0.329343      0.000000

     2   2 0 0     -3.569990     -3.570527     -3.570527      3.571064
     2   1 1 0     -0.000000     -0.000000     -0.000000      0.000000
     2   1 0 1     -0.000000     -0.000000     -0.000000      0.000000
     2   0 2 0     -4.568011     -2.284006     -2.284006      0.000000
     2   0 1 1      0.000000      0.000000      0.000000      0.000000

 Zero-Point correction to Energy  =   14.550 kcal/mol  (  0.023188 au)
 Thermal correction to Energy     =   16.327 kcal/mol  (  0.026019 au)
 Thermal correction to Enthalpy   =   16.920 kcal/mol  (  0.026963 au)
 Total Entropy                    =   45.346 cal/mol-K
   - Translational                =   34.593 cal/mol-K (mol. weight =  18.0106)
   - Rotational                   =   10.752 cal/mol-K (symmetry #  =        2)
   - Vibrational                  =    0.001 cal/mol-K
   - Translational                  =    2.979 cal/mol-K
   - Rotational                     =    2.979 cal/mol-K
   - Vibrational                    =    0.009 cal/mol-K
 P.Frequency        0.00        0.00        0.00        0.00        0.00        0.00
 P.Frequency     2070.33     3978.75     4133.98

 Normal Eigenvalue ||           Projected Infra Red Intensities
  Mode   [cm**-1]  || [atomic units] [(debye/angs)**2] [(KM/mol)] [arbitrary]
 ------ ---------- || -------------- ----------------- ---------- -----------
    1        0.000 ||    0.015192           0.350        14.810       4.008
    2        0.000 ||    0.060276           1.391        58.760      15.903
    3        0.000 ||    0.060276           1.391        58.760      15.903
    4        0.000 ||    0.062799           1.449        61.219      16.568
    5        0.000 ||    0.001040           0.024         1.014       0.274
    6        0.000 ||    0.000010           0.000         0.010       0.003
    7     2070.327 ||    0.001694           0.039         1.651       0.447
    8     3978.745 ||    0.078393           1.809        76.422      20.682
    9     4133.981 ||    0.061451           1.418        59.906      16.213
 ----------------------------------------------------------------------------

 Total times  cpu:        1.3s     wall:        1.5s
