 Gaussian 09, Revision A.02,
 Gaussian 09:  AM64L-G09RevA.02 11-Jun-2009

 ------------------------------------------------------
 #P M06 6-311G** OPT FREQ # GFINPUT IOP(6/7=3) POP=FULL
 ------------------------------------------------------

 --------------------
 intermediate product
 --------------------
 Symbolic Z-matrix:
 Charge =  0 Multiplicity = 2

 SCF Done:  E(UM06) =  -165.197686196     A.U. after   24 cycles
 SCF Done:  E(UM06) =  -165.257377468     A.U. after   23 cycles
 SCF Done:  E(UM06) =  -165.287030869     A.U. after   20 cycles
 SCF Done:  E(UM06) =  -165.299018170     A.U. after   18 cycles
 SCF Done:  E(UM06) =  -165.304695100     A.U. after   20 cycles
 SCF Done:  E(UM06) =  -165.305392469     A.U. after   17 cycles
 SCF Done:  E(UM06) =  -165.305398610     A.U. after   11 cycles
 SCF Done:  E(UM06) =  -165.305399652     A.U. after   11 cycles
 Optimization completed.
    -- Stationary point found.
 Normal termination of Gaussian 09 at Fri Apr 25 16:43:34 2014.

 ----------------------------------------------------------------------
 #P Geom=AllCheck Guess=TCheck SCRF=Check Test GenChk UM06/6-311G(d,p)
 Freq
 ----------------------------------------------------------------------

 intermediate product
 --------------------
 Redundant internal coordinates taken from checkpoint file:
 /scratch_l/henon/h2n3_6338/Gau-6355.chk
 Charge =  0 Multiplicity = 2

                         Standard orientation:
 ---------------------------------------------------------------------
 Center     Atomic      Atomic             Coordinates (Angstroms)
 Number     Number       Type             X           Y           Z
 ---------------------------------------------------------------------
      1          7           0        0.240195   -0.427923    0.011012
      2          7           0        1.211164    0.225770    0.008573
      3          7           0       -1.052358    0.121309   -0.107009
      4          1           0       -1.707634   -0.503366    0.345949
      5          1           0       -1.085371    1.069273    0.266017
 ---------------------------------------------------------------------

 SCF Done:  E(UM06) =  -165.305399652     A.U. after    1 cycles

 The electronic state is 2-A.
 Alpha  occ. eigenvalues --  -14.49231 -14.44425 -14.43882  -1.11445  -0.93355
 Alpha  occ. eigenvalues --   -0.64953  -0.56675  -0.48626  -0.47373  -0.41670
 Alpha  occ. eigenvalues --   -0.31817  -0.22669
 Alpha virt. eigenvalues --   -0.01556   0.03743   0.07926   0.17686   0.32948
 Alpha virt. eigenvalues --    0.36207   0.42678   0.52252   0.53934   0.57035
 Alpha virt. eigenvalues --    0.58922   0.61250   0.65363   0.67805   0.70150

  Beta  occ. eigenvalues --  -14.48910 -14.44026 -14.42594  -1.09506  -0.91274
  Beta  occ. eigenvalues --   -0.63040  -0.55553  -0.46818  -0.44483  -0.38342
  Beta  occ. eigenvalues --   -0.30624
  Beta virt. eigenvalues --   -0.07991  -0.00172   0.04238   0.08019   0.18958
  Beta virt. eigenvalues --    0.33043   0.36451   0.43158   0.52606   0.54543
  Beta virt. eigenvalues --    0.58394   0.59292   0.61767   0.65617   0.69034

 Mulliken atomic charges:
              1
     1  N   -0.001909
     2  N   -0.122543
     3  N   -0.347345
     4  H    0.247649
     5  H    0.224147
 Sum of Mulliken atomic charges =  -0.00000

 Dipole moment (field-independent basis, Debye):
    X=             -2.5982    Y=              0.3771    Z=              1.2320  Tot=              2.9001
 Quadrupole moment (field-independent basis, Debye-Ang):
   XX=            -17.2634   YY=            -16.5039   ZZ=            -17.7612
   XY=             -0.3703   XZ=             -2.0473   YZ=              0.2737

  Exact polarizability:  32.417   1.750  18.823  -0.661   0.198  11.791
 Approx polarizability:  51.449   6.541  26.939   0.068   0.361  15.518

                     1                      2                      3
                     A                      A                      A
 Frequencies --   430.4872               529.0931               549.5558
 Red. masses --     1.4626                 3.4995                 2.7765
 Frc consts  --     0.1597                 0.5772                 0.4941
 IR Inten    --    31.9000                68.0344               162.0042

                     4                      5                      6
                     A                      A                      A
 Frequencies --   958.0105              1235.7685              1589.7202
 Red. masses --     1.9811                 1.2226                 1.0914
 Frc consts  --     1.0713                 1.1000                 1.6251
 IR Inten    --    37.4277                16.5176                44.5827

                     7                      8                      9
                     A                      A                      A
 Frequencies --  1828.9461              3450.6516              3626.6951
 Red. masses --    11.5725                 1.0492                 1.0964
 Frc consts  --    22.8076                 7.3607                 8.4966
 IR Inten    --    47.8115                 3.4462                24.9196

 - Thermochemistry -
 -------------------
 Temperature   298.150 Kelvin.  Pressure   1.00000 Atm.
 Atom     1 has atomic number  7 and mass  14.00307

 Molecular mass:    44.02487 amu.
 Principal axes and moments of inertia in atomic units:
                           1         2         3
     Eigenvalues --    18.59666 146.96657 163.25841
           X            0.99970  -0.00860  -0.02272
           Y            0.00922   0.99958   0.02735
           Z            0.02247  -0.02755   0.99937
 This molecule is an asymmetric top.
 Rotational symmetry number  1.
 Rotational temperatures (Kelvin)      4.65749     0.58934     0.53053
 Rotational constants (GHZ):          97.04654    12.27994    11.05451
 Zero-point vibrational energy      84928.4 (Joules/Mol)
                                   20.29839 (Kcal/Mol)
 Warning -- explicit consideration of   3 degrees of freedom as
           vibrations may cause significant error
 Vibrational temperatures:    619.37   761.25   790.69  1378.36  1777.99
          (Kelvin)           2287.25  2631.44  4964.71  5218.00

 Zero-point correction=                           0.032348 (Hartree/Particle)
 Thermal correction to Energy=                    0.035917
 Thermal correction to Enthalpy=                  0.036861
 Thermal correction to Gibbs Free Energy=         0.007628
 Sum of electronic and zero-point Energies=           -165.273052
 Sum of electronic and thermal Energies=              -165.269483
 Sum of electronic and thermal Enthalpies=            -165.268539
 Sum of electronic and thermal Free Energies=         -165.297772

                     E (Thermal)             CV                S
                      KCal/Mol        Cal/Mol-Kelvin    Cal/Mol-Kelvin
 Total                   22.538             10.377             61.527
 Electronic               0.000              0.000              1.377
 Translational            0.889              2.981             37.273
 Rotational               0.889              2.981             20.728
 Vibrational             20.761              4.416              2.149
 Vibration     1          0.792              1.404              0.857
 Vibration     2          0.884              1.186              0.589
 Vibration     3          0.905              1.141              0.545

 Optimization completed.
    -- Stationary point found.
 Normal termination of Gaussian 09 at Fri Apr 25 16:43:43 2014.
