                         Program Version 4.0.1.2 - RELEASE -
|  1> ! RKS BP def2-TZVP RI def2/J
|  2> ! TightSCF Grid5 NoFinalGrid
|  3> ! Opt
|  4> ! Freq
|  5> ! angs
|  6> * xyz 0 1
|  7> O          0.00000       -0.00000        0.00000
|  8> H          0.00000        0.00000        0.96255
|  9> C          0.61485        1.19258       -0.44789
| 10> C          0.60303        1.17047       -1.96332
| 11> H          1.14906        0.29761       -2.32828
| 12> H          1.06786        2.07253       -2.36908
| 13> H         -0.42489        1.10884       -2.32774
| 14> H          0.07472        2.07902       -0.08279
| 15> H          1.65042        1.26659       -0.08322
| 16> *
| 17>
| 18>                          ****END OF INPUT****
 Total Charge           Charge          ....    0
 Multiplicity           Mult            ....    1
 Number of Electrons    NEL             ....   26
FINAL SINGLE POINT ENERGY      -155.103951584315
FINAL SINGLE POINT ENERGY      -155.104395360288
FINAL SINGLE POINT ENERGY      -155.104431384040
FINAL SINGLE POINT ENERGY      -155.104447015776
FINAL SINGLE POINT ENERGY      -155.104448367419
                    ***********************HURRAY********************

CARTESIAN COORDINATES (ANGSTROEM)
---------------------------------
  O     -0.006992   -0.013660    0.015098
  H      0.000324    0.000211    0.986828
  C      0.615414    1.193808   -0.450916
  C      0.602679    1.169834   -1.968200
  H      1.155064    0.297948   -2.345601
  H      1.071600    2.079472   -2.370379
  H     -0.428083    1.114219   -2.345276
  H      0.068894    2.082073   -0.080446
  H      1.656149    1.263735   -0.080879

 Multiplicity           Mult            ....    1
 Number of Electrons    NEL             ....   26
 Basis Dimension        Dim             ....  129

ORBITAL ENERGIES
----------------

  NO   OCC          E(Eh)            E(eV)
   0   2.0000     -18.764755      -510.6150
   1   2.0000      -9.941948      -270.5342
   2   2.0000      -9.886165      -269.0162
   3   2.0000      -0.930163       -25.3110
   4   2.0000      -0.680925       -18.5289
   5   2.0000      -0.550478       -14.9793
   6   2.0000      -0.466849       -12.7036
   7   2.0000      -0.415809       -11.3147
   8   2.0000      -0.359084        -9.7712
   9   2.0000      -0.341453        -9.2914
  10   2.0000      -0.322136        -8.7658
  11   2.0000      -0.292458        -7.9582
  12   2.0000      -0.228510        -6.2181
  13   0.0000       0.011895         0.3237
  14   0.0000       0.042704         1.1620
  15   0.0000       0.075246         2.0475
  16   0.0000       0.081590         2.2202
  17   0.0000       0.097073         2.6415

MULLIKEN ATOMIC CHARGES
-----------------------
   0 O :   -0.432248
   1 H :    0.294327
   2 C :   -0.045375
   3 C :   -0.317334
   4 H :    0.114630
   5 H :    0.104314
   6 H :    0.114628
   7 H :    0.083538
   8 H :    0.083519
Sum of atomic charges:   -0.0000000

LOEWDIN ATOMIC CHARGES
----------------------
   0 O :   -0.054375
   1 H :    0.169734
   2 C :   -0.386651
   3 C :   -0.322838
   4 H :    0.123378
   5 H :    0.124186
   6 H :    0.123374
   7 H :    0.111596
   8 H :    0.111596

  Mayer bond orders larger than 0.1
B(  0-O ,  1-H ) :   0.9025 B(  0-O ,  2-C ) :   1.0541 B(  2-C ,  3-C ) :   0.9976
B(  2-C ,  7-H ) :   0.9507 B(  2-C ,  8-H ) :   0.9507 B(  3-C ,  4-H ) :   0.9657
B(  3-C ,  5-H ) :   0.9569 B(  3-C ,  6-H ) :   0.9657

FINAL SINGLE POINT ENERGY      -155.104448512202

DIPOLE MOMENT
-------------
                                X             Y             Z
Electronic contribution:     -0.86948      -1.68734       1.91659
Nuclear contribution   :      1.09215       2.11915      -1.54995
                        -----------------------------------------
Total Dipole Moment    :      0.22267       0.43181       0.36664
                        -----------------------------------------
Magnitude (a.u.)       :      0.60866
Magnitude (Debye)      :      1.54709

VIBRATIONAL FREQUENCIES
-----------------------

   0:         0.00 cm**-1
   1:         0.00 cm**-1
   2:         0.00 cm**-1
   3:         0.00 cm**-1
   4:         0.00 cm**-1
   5:         0.00 cm**-1
   6:       232.55 cm**-1
   7:       271.12 cm**-1
   8:       404.26 cm**-1
   9:       795.55 cm**-1
  10:       872.09 cm**-1
  11:      1003.02 cm**-1
  12:      1067.87 cm**-1
  13:      1136.38 cm**-1
  14:      1232.62 cm**-1
  15:      1254.86 cm**-1
  16:      1354.12 cm**-1
  17:      1400.71 cm**-1
  18:      1434.04 cm**-1
  19:      1451.83 cm**-1
  20:      1476.85 cm**-1
  21:      2896.52 cm**-1
  22:      2920.02 cm**-1
  23:      2970.65 cm**-1
  24:      3042.13 cm**-1
  25:      3044.36 cm**-1
  26:      3693.79 cm**-1

IR SPECTRUM
-----------

 Mode    freq (cm**-1)   T**2         TX         TY         TZ
-------------------------------------------------------------------
   6:       232.55   48.525158  ( -6.191783   3.191704   0.001225)
   7:       271.12   69.647012  (  7.417274  -3.825057  -0.002290)
   8:       404.26   11.035808  (  1.219775   2.364539  -1.989198)
   9:       795.55    0.146913  (  0.340938  -0.175142  -0.000282)
  10:       872.09   16.486258  ( -1.648442  -3.199709   1.879031)
  11:      1003.02   61.079463  ( -3.166204  -6.144461   3.646946)
  12:      1067.87   26.239277  (  2.127147   4.123688  -2.170188)
  13:      1136.38    2.967363  (  1.531516  -0.788557  -0.000994)
  14:      1232.62   60.359539  ( -3.452590  -6.700312   1.882810)
  15:      1254.86    0.199128  (  0.399363  -0.199087  -0.001121)
  16:      1354.12    2.501970  ( -0.043794  -0.082561   1.578998)
  17:      1400.71   10.775385  ( -0.074783  -0.145954   3.278489)
  18:      1434.04    6.464522  (  2.259699  -1.165453   0.000446)
  19:      1451.83    2.993922  ( -0.786224  -1.524963   0.224187)
  20:      1476.85    1.021867  ( -0.127249  -0.253497   0.970265)
  21:      2896.52   73.455197  ( -3.488335  -6.765199  -3.939390)
  22:      2920.02   56.935787  (  6.706709  -3.457722  -0.001767)
  23:      2970.65   16.824416  ( -0.132729  -0.261097   4.091287)
  24:      3042.13   25.651558  (  2.330154   4.464973   0.534754)
  25:      3044.36   29.539402  ( -4.819916   2.511533   0.003918)
  26:      3693.79   15.405031  ( -0.614875  -1.193731   3.688084)

--------------------------
THERMOCHEMISTRY AT 298.15K
--------------------------

Temperature         ... 298.15 K
Pressure            ... 1.00 atm
Total Mass          ... 46.07 AMU

Throughout the following assumptions are being made:
  (1) The electronic state is orbitally nondegenerate
  (2) There are no thermally accessible electronically excited states
  (3) Hindered rotations indicated by low frequency modes are not
      treated as such but are treated as vibrations and this may
      cause some error
  (4) All equations used are the standard statistical mechanics
      equations for an ideal gas
  (5) All vibrations are strictly harmonic

freq.     232.55  E(vib)   ...       0.32
freq.     271.12  E(vib)   ...       0.29
freq.     404.26  E(vib)   ...       0.19
freq.     795.55  E(vib)   ...       0.05
freq.     872.09  E(vib)   ...       0.04
freq.    1003.02  E(vib)   ...       0.02
freq.    1067.87  E(vib)   ...       0.02
freq.    1136.38  E(vib)   ...       0.01
freq.    1232.62  E(vib)   ...       0.01
freq.    1254.86  E(vib)   ...       0.01
freq.    1354.12  E(vib)   ...       0.01
freq.    1400.71  E(vib)   ...       0.00
freq.    1434.04  E(vib)   ...       0.00
freq.    1451.83  E(vib)   ...       0.00
freq.    1476.85  E(vib)   ...       0.00
freq.    2896.52  E(vib)   ...       0.00
freq.    2920.02  E(vib)   ...       0.00
freq.    2970.65  E(vib)   ...       0.00
freq.    3042.13  E(vib)   ...       0.00
freq.    3044.36  E(vib)   ...       0.00
freq.    3693.79  E(vib)   ...       0.00

------------
INNER ENERGY
------------

The inner energy is: U= E(el) + E(ZPE) + E(vib) + E(rot) + E(trans)
    E(el)   - is the total energy from the electronic structure calculation
              = E(kin-el) + E(nuc-el) + E(el-el) + E(nuc-nuc)
    E(ZPE)  - the the zero temperature vibrational energy from the frequency calculation
    E(vib)  - the the finite temperature correction to E(ZPE) due to population
              of excited vibrational states
    E(rot)  - is the rotational thermal energy
    E(trans)- is the translational thermal energy

Summary of contributions to the inner energy U:
Electronic energy                ...   -155.10444851 Eh
Zero point energy                ...      0.07735591 Eh      48.54 kcal/mol
Thermal vibrational correction   ...      0.00156273 Eh       0.98 kcal/mol
Thermal rotational correction    ...      0.00141627 Eh       0.89 kcal/mol
Thermal translational correction ...      0.00141627 Eh       0.89 kcal/mol
-----------------------------------------------------------------------
Total thermal energy                   -155.02269732 Eh

Summary of corrections to the electronic energy:
(perhaps to be used in another calculation)
Total thermal correction                  0.00439528 Eh       2.76 kcal/mol
Non-thermal (ZPE) correction              0.07735591 Eh      48.54 kcal/mol
-----------------------------------------------------------------------
Total correction                          0.08175119 Eh      51.30 kcal/mol

--------
ENTHALPY
--------

The enthalpy is H = U + kB*T
                kB is Boltzmann's constant
Total free energy                 ...   -155.02269732 Eh
Thermal Enthalpy correction       ...      0.00094421 Eh       0.59 kcal/mol
-----------------------------------------------------------------------
Total Enthalpy                    ...   -155.02175311 Eh

Vibrational entropy computed according to the QRRHO of S. Grimme
Chem.Eur.J. 2012 18 9955

-------
ENTROPY
-------

The entropy contributions are T*S = T*(S(el)+S(vib)+S(rot)+S(trans)
     S(el)   - electronic entropy
     S(vib)  - vibrational entropy
     S(rot)  - rotational entropy
     S(trans)- translational entropy
The entropies will be listed as mutliplied by the temperature to get
units of energy

Electronic entropy                ...      0.00000000 Eh      0.00 kcal/mol
Vibrational entropy               ...      0.00244412 Eh      1.53 kcal/mol
Rotational entropy                ...      0.00957687 Eh      6.01 kcal/mol
Translational entropy             ...      0.01777359 Eh     11.15 kcal/mol
-----------------------------------------------------------------------
Final entropy term                ...      0.02979458 Eh     18.70 kcal/mol

CAUTION: The rotational entropy is not quite correctly treated here
         because it includes a symmetry number that is not yet correctly
         implemented in ORCA!
For a nonlinear molecule the correct rotational entropy is:
    S(rot) = R*(ln(qrot/sn)+1.5)
    R    = 8.31441 J/mol/K = 1.987191683e-3 kcal/mol/K
    qrot = 17011.6985628
    sn is the rotational symmetry number. We have assumed 3 here
       if it is different for your molecule then you should correct
       the printed rotational entropy by manually evaluating the equation
       as given above

For convenience we print out the resulting values for sn=1 - 12:
 sn= 1  qrot/sn=   17011.6986 T*S(rot)=     6.66 kcal/mol T*S(tot)=    19.35 kcal/mol
 sn= 2  qrot/sn=    8505.8493 T*S(rot)=     6.25 kcal/mol T*S(tot)=    18.94 kcal/mol
 sn= 3  qrot/sn=    5670.5662 T*S(rot)=     6.01 kcal/mol T*S(tot)=    18.70 kcal/mol
 sn= 4  qrot/sn=    4252.9246 T*S(rot)=     5.84 kcal/mol T*S(tot)=    18.53 kcal/mol
 sn= 5  qrot/sn=    3402.3397 T*S(rot)=     5.71 kcal/mol T*S(tot)=    18.39 kcal/mol
 sn= 6  qrot/sn=    2835.2831 T*S(rot)=     5.60 kcal/mol T*S(tot)=    18.29 kcal/mol
 sn= 7  qrot/sn=    2430.2427 T*S(rot)=     5.51 kcal/mol T*S(tot)=    18.19 kcal/mol
 sn= 8  qrot/sn=    2126.4623 T*S(rot)=     5.43 kcal/mol T*S(tot)=    18.12 kcal/mol
 sn= 9  qrot/sn=    1890.1887 T*S(rot)=     5.36 kcal/mol T*S(tot)=    18.05 kcal/mol
 sn=10  qrot/sn=    1701.1699 T*S(rot)=     5.30 kcal/mol T*S(tot)=    17.98 kcal/mol
 sn=11  qrot/sn=    1546.5181 T*S(rot)=     5.24 kcal/mol T*S(tot)=    17.93 kcal/mol
 sn=12  qrot/sn=    1417.6415 T*S(rot)=     5.19 kcal/mol T*S(tot)=    17.87 kcal/mol

-------------------
GIBBS FREE ENTHALPY
-------------------

The Gibbs free enthalpy is G = H - T*S

Total enthalpy                    ...   -155.02175311 Eh
Total entropy correction          ...     -0.02979458 Eh    -18.70 kcal/mol
-----------------------------------------------------------------------
Final Gibbs free enthalpy         ...   -155.05154769 Eh

For completeness - the Gibbs free enthalpy minus the electronic energy
G-E(el)                           ...      0.05290082 Eh     33.20 kcal/mol

                             ****ORCA TERMINATED NORMALLY****
TOTAL RUN TIME: 0 days 0 hours 4 minutes 3 seconds 481 msec
