 Output coordinates in angstroms (scale by  1.889725989 to convert to a.u.)

  No.       Tag          Charge          X              Y              Z
 ---- ---------------- ---------- -------------- -------------- --------------
    1 O                    8.0000     0.00000000     0.00000000    -0.14142136
    2 H                    1.0000     0.70710678     0.00000000     0.56568542
    3 H                    1.0000    -0.70710678     0.00000000     0.56568542

         Total SCF energy =    -74.653754521982
          Total MP2 energy           -74.686123313054
         Total SCF energy =    -74.653754185246
          Total MP2 energy           -74.686122977973
         Total SCF energy =    -74.653754185246
          Total MP2 energy           -74.686122977973
         Total SCF energy =    -74.653754524210
          Total MP2 energy           -74.686123323267
         Total SCF energy =    -74.653754524210
          Total MP2 energy           -74.686123323267
         Total SCF energy =    -74.653748235286
          Total MP2 energy           -74.686086665349
         Total SCF energy =    -74.653760170171
          Total MP2 energy           -74.686159344860
         Total SCF energy =    -74.653689673398
          Total MP2 energy           -74.686051116316
         Total SCF energy =    -74.653818968589
          Total MP2 energy           -74.686195109420
         Total SCF energy =    -74.653754534636
          Total MP2 energy           -74.686123327004
         Total SCF energy =    -74.653754534636
          Total MP2 energy           -74.686123327004
         Total SCF energy =    -74.653757353234
          Total MP2 energy           -74.686141330432
         Total SCF energy =    -74.653751385812
          Total MP2 energy           -74.686104991975
 Zero-Point correction to Energy  =   14.731 kcal/mol  (  0.023476 au)
 Thermal correction to Energy     =   16.509 kcal/mol  (  0.026309 au)
 Thermal correction to Enthalpy   =   17.101 kcal/mol  (  0.027252 au)
 Total Entropy                    =   45.349 cal/mol-K
   - Translational                =   34.593 cal/mol-K (mol. weight =  18.0106)
   - Rotational                   =   10.752 cal/mol-K (symmetry #  =        2)
   - Vibrational                  =    0.004 cal/mol-K
   - Translational                  =    2.979 cal/mol-K
   - Rotational                     =    2.979 cal/mol-K
   - Vibrational                    =    0.032 cal/mol-K
 P.Frequency       -0.00        0.00        0.00        0.00        0.00        0.00
 P.Frequency     1738.91     4247.29     4323.27

 Normal Eigenvalue ||           Projected Infra Red Intensities
  Mode   [cm**-1]  || [atomic units] [(debye/angs)**2] [(KM/mol)] [arbitrary]
 ------ ---------- || -------------- ----------------- ---------- -----------
    1       -0.000 ||    0.053029           1.223        51.696       4.777
    2        0.000 ||    0.000058           0.001         0.057       0.005
    3        0.000 ||    0.233142           5.379       227.278      21.003
    4        0.000 ||    0.233142           5.379       227.278      21.003
    5        0.000 ||    0.077484           1.788        75.535       6.980
    6        0.000 ||    0.173788           4.009       169.417      15.656
    7     1738.915 ||    0.080185           1.850        78.168       7.224
    8     4247.293 ||    0.019161           0.442        18.679       1.726
    9     4323.270 ||    0.129046           2.977       125.800      11.625
 ----------------------------------------------------------------------------

 Total times  cpu:        0.9s     wall:        2.8s
