 Gaussian 09, Revision A.02,
 Gaussian 09:  AM64L-G09RevA.02 11-Jun-2009

 ------------------------------------------------------
 #P M06 6-311G** FREQ OPT # GFINPUT IOP(6/7=3) POP=FULL
 ------------------------------------------------------

 ---------
 product 2
 ---------
 Symbolic Z-matrix:
 Charge =  0 Multiplicity = 2

 SCF Done:  E(UM06) =  -55.8502837824     A.U. after   13 cycles
 SCF Done:  E(UM06) =  -55.8521845269     A.U. after   12 cycles
 SCF Done:  E(UM06) =  -55.8522973215     A.U. after    8 cycles
 SCF Done:  E(UM06) =  -55.8522990027     A.U. after    6 cycles
 Optimization completed.
    -- Stationary point found.
 Normal termination of Gaussian 09 at Fri Apr 25 16:34:18 2014.

 ----------------------------------------------------------------------
 #P Geom=AllCheck Guess=TCheck SCRF=Check Test GenChk UM06/6-311G(d,p)
 Freq
 ----------------------------------------------------------------------

 product 2
 ---------
 Redundant internal coordinates taken from checkpoint file:
 /scratch_l/henon/nh2_14767/Gau-14784.chk
 Charge =  0 Multiplicity = 2

                         Standard orientation:
 ---------------------------------------------------------------------
 Center     Atomic      Atomic             Coordinates (Angstroms)
 Number     Number       Type             X           Y           Z
 ---------------------------------------------------------------------
      1          7           0        0.000000   -0.000000    0.143752
      2          1           0        0.000000    0.800755   -0.503132
      3          1           0       -0.000000   -0.800755   -0.503132
 ---------------------------------------------------------------------

 SCF Done:  E(UM06) =  -55.8522990027     A.U. after    1 cycles

 The electronic state is 2-B1.
 Alpha  occ. eigenvalues --  -14.40446  -0.87117  -0.48382  -0.34350  -0.31660
 Alpha virt. eigenvalues --    0.03728   0.09287   0.33696   0.39923   0.57356
 Alpha virt. eigenvalues --    0.59645   0.69440   0.83986   1.16819   1.19900
 Alpha virt. eigenvalues --    1.35022   1.59140   1.76171   1.84850   2.23475

  Beta  occ. eigenvalues --  -14.38783  -0.80448  -0.46123  -0.30655
  Beta virt. eigenvalues --   -0.08663   0.04389   0.09641   0.33344   0.40546
  Beta virt. eigenvalues --    0.60557   0.64645   0.69697   0.84855   1.16150
  Beta virt. eigenvalues --    1.20247   1.35491   1.57270   1.76357   1.88981

 Mulliken atomic charges:
              1
     1  N   -0.389407
     2  H    0.194704
     3  H    0.194704
 Sum of Mulliken atomic charges =   0.00000

 Dipole moment (field-independent basis, Debye):
    X=             -0.0000    Y=              0.0000    Z=             -1.9866  Tot=              1.9866
 Quadrupole moment (field-independent basis, Debye-Ang):
   XX=             -6.9228   YY=             -5.5077   ZZ=             -7.3547
   XY=              0.0000   XZ=              0.0000   YZ=              0.0000

  Exact polarizability:   6.162   0.000  10.471   0.000  -0.000   8.442
 Approx polarizability:   5.937   0.000  12.372   0.000   0.000   9.651

                     1                      2                      3
                    A1                     A1                     B2
 Frequencies --  1499.5887              3374.8031              3474.7769
 Red. masses --     1.0901                 1.0512                 1.0888
 Frc consts  --     1.4443                 7.0541                 7.7454
 IR Inten    --    18.3591                11.2409                 3.8929

 - Thermochemistry -
 -------------------
 Temperature   298.150 Kelvin.  Pressure   1.00000 Atm.
 Atom     1 has atomic number  7 and mass  14.00307

 Molecular mass:    16.01872 amu.
 Principal axes and moments of inertia in atomic units:
                           1         2         3
     Eigenvalues --     2.63306   4.61543   7.24850
           X            0.00000   0.00000   1.00000
           Y            1.00000   0.00000   0.00000
           Z            0.00000   1.00000   0.00000
 This molecule is an asymmetric top.
 Rotational symmetry number  2.
 Rotational temperatures (Kelvin)     32.89468    18.76613    11.94921
 Rotational constants (GHZ):         685.41479   391.02322   248.98145
 Zero-point vibrational energy      49939.1 (Joules/Mol)
                                   11.93574 (Kcal/Mol)
 Vibrational temperatures:   2157.57  4855.58  4999.42
          (Kelvin)

 Zero-point correction=                           0.019021 (Hartree/Particle)
 Thermal correction to Energy=                    0.021858
 Thermal correction to Enthalpy=                  0.022802
 Thermal correction to Gibbs Free Energy=         0.000698
 Sum of electronic and zero-point Energies=            -55.833278
 Sum of electronic and thermal Energies=               -55.830441
 Sum of electronic and thermal Enthalpies=             -55.829497
 Sum of electronic and thermal Free Energies=          -55.851601

                     E (Thermal)             CV                S
                      KCal/Mol        Cal/Mol-Kelvin    Cal/Mol-Kelvin
 Total                   13.716              6.037             46.523
 Electronic               0.000              0.000              1.377
 Translational            0.889              2.981             34.259
 Rotational               0.889              2.981             10.875
 Vibrational             11.939              0.075              0.012

 Optimization completed.
    -- Stationary point found.
 Normal termination of Gaussian 09 at Fri Apr 25 16:34:21 2014.
