 Gaussian 03, Revision D.01,
 Gaussian 03:  IA32L-G03RevD.01 13-Oct-2005

 ---------------------------------------------------------------
 #P MP2/GEN freq=Numer pseudo=read # pop=full gfinput iop(6/7=3)
 ---------------------------------------------------------------

 ---
 job
 ---
 Symbolic Z-matrix:
 Charge =  0 Multiplicity = 2

                         Standard orientation:
 ---------------------------------------------------------------------
 Center     Atomic     Atomic              Coordinates (Angstroms)
 Number     Number      Type              X           Y           Z
 ---------------------------------------------------------------------
    1         53             0        0.000000    0.000000    0.000000
 ---------------------------------------------------------------------

 SCF Done:  E(UHF) =  -294.661502987     A.U. after   11 cycles
 E2 =    -0.2024326436D+00 EUMP2 =    -0.29486393563038D+03
 SCF Done:  E(UHF) =  -294.661502987     A.U. after    1 cycles
 E2 =    -0.2024326436D+00 EUMP2 =    -0.29486393563037D+03
 SCF Done:  E(UHF) =  -294.661502987     A.U. after    1 cycles
 E2 =    -0.2024326436D+00 EUMP2 =    -0.29486393563037D+03
 SCF Done:  E(UHF) =  -294.661502987     A.U. after    1 cycles
 E2 =    -0.2024326436D+00 EUMP2 =    -0.29486393563037D+03

 Alpha  occ. eigenvalues --   -7.74895  -5.58940  -5.56608  -5.56608  -2.31315
 Alpha  occ. eigenvalues --   -2.30679  -2.30679  -2.28801  -2.28801  -0.92227
 Alpha  occ. eigenvalues --   -0.45918  -0.39919  -0.39919
 Alpha virt. eigenvalues --    0.22368   0.34920   0.35800   0.35800   0.38935
 Alpha virt. eigenvalues --    0.38935   0.39634   0.42624   0.42624   1.10480
 Alpha virt. eigenvalues --    1.11029   1.11029   1.12709   1.12709   1.15709

  Beta  occ. eigenvalues --   -7.74122  -5.56838  -5.56496  -5.56496  -2.30129
  Beta  occ. eigenvalues --   -2.29775  -2.29775  -2.28759  -2.28759  -0.83275
  Beta  occ. eigenvalues --   -0.38202  -0.38202
  Beta virt. eigenvalues --   -0.04893   0.23555   0.39143   0.39143   0.41248
  Beta virt. eigenvalues --    0.41248   0.42043   0.43138   0.43138   0.45326
  Beta virt. eigenvalues --    1.15447   1.15494   1.15494   1.15612   1.15612

 Mulliken atomic charges:
              1
     1  I    0.000000
 Sum of Mulliken charges=   0.00000

 Dipole moment (field-independent basis, Debye):
    X=     0.0000    Y=     0.0000    Z=     0.0000  Tot=     0.0000
 Quadrupole moment (field-independent basis, Debye-Ang):
   XX=   -28.1833   YY=   -28.1833   ZZ=   -24.6368
   XY=     0.0000   XZ=     0.0000   YZ=     0.0000

 - Thermochemistry -
 -------------------
 Temperature   298.150 Kelvin.  Pressure   1.00000 Atm.
 Atom  1 has atomic number 53 and mass 126.90040
 Molecular mass:   126.90040 amu.
 Zero-point vibrational energy          0.0 (Joules/Mol)
                                    0.00000 (Kcal/Mol)
 Vibrational temperatures:
          (Kelvin)

 Zero-point correction=                           0.000000 (Hartree/Particle)
 Thermal correction to Energy=                    0.001416
 Thermal correction to Enthalpy=                  0.002360
 Thermal correction to Gibbs Free Energy=        -0.017503
 Sum of electronic and zero-point Energies=           -294.863936
 Sum of electronic and thermal Energies=              -294.862519
 Sum of electronic and thermal Enthalpies=            -294.861575
 Sum of electronic and thermal Free Energies=         -294.881438

                     E (Thermal)             CV                S
                      KCal/Mol        Cal/Mol-Kelvin    Cal/Mol-Kelvin
 Total                    0.889              2.981             41.806
 Electronic               0.000              0.000              1.377
 Translational            0.889              2.981             40.428
 Rotational               0.000              0.000              0.000
 Vibrational              0.000              0.000              0.000

 Optimization completed.
    -- Stationary point found.
 Normal termination of Gaussian 03 at Mon Aug 12 23:30:18 2013.
