 Gaussian 09, Revision D.01,
 Gaussian 09:  ES64L-G09RevD.01 24-Apr-2013

 ----------------------------------------------------------------------
 #P B3LYP 6-311G** OPT=(TS, maxcyc=100, noeigentest, calcall) # POP=ful
 l GFINPUT IOP(6/7=3) FREQ
 ----------------------------------------------------------------------

 --------
 essai ts
 --------
 Symbolic Z-matrix:
 Charge =  0 Multiplicity = 1

 SCF Done:  E(RB3LYP) =  -93.3753108019     A.U. after   12 cycles
 SCF Done:  E(RB3LYP) =  -93.3752569599     A.U. after    9 cycles
 Optimization completed.
    -- Stationary point found.
 ******    1 imaginary frequencies (negative Signs) ******
    1 imaginary frequencies ignored.
 Normal termination of Gaussian 09 at Thu Apr 14 12:40:17 2016.

 ----------------------------------------------------------------------
 #P Geom=AllCheck Guess=TCheck SCRF=Check Test GenChk RB3LYP/6-311G(d,p
 ) Freq
 ----------------------------------------------------------------------

 Structure from the checkpoint file:  "/scratch_l/henon/relax1_15763/Gau-15774.chk"
 --------
 essai ts
 --------
 Charge =  0 Multiplicity = 1

                         Standard orientation:
 ---------------------------------------------------------------------
 Center     Atomic      Atomic             Coordinates (Angstroms)
 Number     Number       Type             X           Y           Z
 ---------------------------------------------------------------------
      1          6           0        0.080776    0.618575    0.000000
      2          7           0        0.080776   -0.565189    0.000000
      3          1           0       -1.050085    0.244874    0.000000
 ---------------------------------------------------------------------

 SCF Done:  E(RB3LYP) =  -93.3752569599     A.U. after    1 cycles

 The electronic state is 1-A'.
 Alpha  occ. eigenvalues --  -14.38573 -10.23571  -0.99708  -0.53062  -0.45821
 Alpha  occ. eigenvalues --   -0.39399  -0.34509
 Alpha virt. eigenvalues --   -0.06603   0.00023   0.03278   0.21637   0.30265
 Alpha virt. eigenvalues --    0.39550   0.40730   0.52640   0.54450   0.63153
 Alpha virt. eigenvalues --    0.63878   0.72894   0.99998   1.02908   1.24018

 Mulliken charges:
               1
     1  C   -0.075874
     2  N   -0.111148
     3  H    0.187022
 Sum of Mulliken charges =   0.00000

 Dipole moment (field-independent basis, Debye):
    X=             -1.2536    Y=              0.0852    Z=              0.0000  Tot=              1.2565
 Quadrupole moment (field-independent basis, Debye-Ang):
   XX=             -9.6537   YY=            -14.3552   ZZ=            -12.0559
   XY=             -0.3022   XZ=              0.0000   YZ=              0.0000

  Exact polarizability:  14.105   0.156  18.484   0.000   0.000  10.286
 Approx polarizability:  20.891   0.860  35.355   0.000   0.000  13.934

 ******    1 imaginary frequencies (negative Signs) ******

                      1                      2                      3
                     A'                     A'                     A'
 Frequencies --  -1130.2764              2065.0977              2605.0241
 Red. masses --      1.1684                12.0157                 1.0594
 Frc consts  --      0.8794                30.1912                 4.2358
 IR Inten    --     84.8463                10.7867               139.7739

 - Thermochemistry -
 -------------------
 Temperature   298.150 Kelvin.  Pressure   1.00000 Atm.
 Atom     1 has atomic number  6 and mass  12.00000

 Molecular mass:    27.01090 amu.
 Principal axes and moments of inertia in atomic units:
                           1         2         3
     Eigenvalues --     4.39296  32.61661  37.00957
           X           -0.03664   0.99933   0.00000
           Y            0.99933   0.03664   0.00000
           Z            0.00000   0.00000   1.00000
 This molecule is an asymmetric top.
 Rotational symmetry number  1.
 Rotational temperatures (Kelvin)     19.71653     2.65551     2.34031
 Rotational constants (GHZ):         410.82624    55.33196    48.76418
    1 imaginary frequencies ignored.
 Zero-point vibrational energy      27933.5 (Joules/Mol)
                                    6.67627 (Kcal/Mol)
 Vibrational temperatures:   2971.21  3748.04
          (Kelvin)

 Zero-point correction=                           0.010639 (Hartree/Particle)
 Thermal correction to Energy=                    0.013472
 Thermal correction to Enthalpy=                  0.014417
 Thermal correction to Gibbs Free Energy=        -0.010358
 Sum of electronic and zero-point Energies=            -93.364618
 Sum of electronic and thermal Energies=               -93.361785
 Sum of electronic and thermal Enthalpies=             -93.360840
 Sum of electronic and thermal Free Energies=          -93.385615

                     E (Thermal)             CV                S
                      KCal/Mol        Cal/Mol-Kelvin    Cal/Mol-Kelvin
 Total                    8.454              5.972             52.142
 Electronic               0.000              0.000              0.000
 Translational            0.889              2.981             35.816
 Rotational               0.889              2.981             16.324
 Vibrational              6.677              0.010              0.001

 Optimization completed.
    -- Stationary point found.
 Normal termination of Gaussian 09 at Thu Apr 14 12:40:22 2016.
