 Gaussian 09, Revision A.02,
 Gaussian 09:  AM64L-G09RevA.02 11-Jun-2009

 ------------------------------------------------------
 #P M06 6-311G** OPT FREQ # GFINPUT IOP(6/7=3) POP=FULL
 ------------------------------------------------------

 --------
 reactif1
 --------
 Symbolic Z-matrix:
 Charge =  0 Multiplicity = 1

 SCF Done:  E(RM06) =  -164.729433569     A.U. after   15 cycles
 SCF Done:  E(RM06) =  -164.731711864     A.U. after   14 cycles
 SCF Done:  E(RM06) =  -164.731864508     A.U. after   10 cycles
 SCF Done:  E(RM06) =  -164.731867079     A.U. after    9 cycles
 SCF Done:  E(RM06) =  -164.731867342     A.U. after    8 cycles
 Optimization completed.
    -- Stationary point found.
 Normal termination of Gaussian 09 at Fri Apr 25 16:17:20 2014.

 ----------------------------------------------------------------------
 #P Geom=AllCheck Guess=TCheck SCRF=Check Test GenChk RM06/6-311G(d,p)
 Freq
 ----------------------------------------------------------------------

 reactif1
 --------
 Redundant internal coordinates taken from checkpoint file:
 /scratch_l/henon/hn3_29526/Gau-29543.chk
 Charge =  0 Multiplicity = 1

                         Standard orientation:
 ---------------------------------------------------------------------
 Center     Atomic      Atomic             Coordinates (Angstroms)
 Number     Number       Type             X           Y           Z
 ---------------------------------------------------------------------
      1          7           0        0.000000    0.107756   -0.000000
      2          7           0       -0.224374    1.213874    0.000000
      3          7           0        0.074166   -1.119835    0.000000
      4          1           0        1.051460   -1.412561   -0.000000
 ---------------------------------------------------------------------

 SCF Done:  E(RM06) =  -164.731867342     A.U. after    1 cycles

 The electronic state is 1-A'.
 Alpha  occ. eigenvalues --  -14.56906 -14.46218 -14.43244  -1.16963  -1.00078
 Alpha  occ. eigenvalues --   -0.63979  -0.54194  -0.53802  -0.47092  -0.34297
 Alpha  occ. eigenvalues --   -0.29483
 Alpha virt. eigenvalues --   -0.02604   0.01715   0.03529   0.23874   0.37301
 Alpha virt. eigenvalues --    0.42845   0.46119   0.50451   0.51670   0.61664
 Alpha virt. eigenvalues --    0.61861   0.67762   0.69766   0.72347   0.78605

 Mulliken atomic charges:
              1
     1  N    0.229989
     2  N   -0.147916
     3  N   -0.333076
     4  H    0.251003
 Sum of Mulliken atomic charges =  -0.00000

 Dipole moment (field-independent basis, Debye):
    X=              1.7926    Y=             -0.7552    Z=             -0.0000  Tot=              1.9452
 Quadrupole moment (field-independent basis, Debye-Ang):
   XX=            -14.4669   YY=            -19.3049   ZZ=            -16.8444
   XY=             -2.0790   XZ=              0.0000   YZ=              0.0000

  Exact polarizability:  12.732  -5.097  36.346   0.000  -0.000   9.433
 Approx polarizability:  16.972 -10.613  82.241  -0.000  -0.000  11.936

                     1                      2                      3
                    A'                     A"                     A'
 Frequencies --   548.3368               624.2049              1166.3912
 Red. masses --     4.9553                 7.3454                 1.5589
 Frc consts  --     0.8778                 1.6862                 1.2496
 IR Inten    --    17.7065                 0.1956               208.0237

                     4                      5                      6
                    A'                     A'                     A'
 Frequencies --  1318.8560              2324.1745              3497.7805
 Red. masses --     4.3599                12.3312                 1.0748
 Frc consts  --     4.4680                39.2458                 7.7472
 IR Inten    --     5.6083               352.7565                49.0966

 - Thermochemistry -
 -------------------
 Temperature   298.150 Kelvin.  Pressure   1.00000 Atm.
 Atom     1 has atomic number  7 and mass  14.00307

 Molecular mass:    43.01705 amu.
 Principal axes and moments of inertia in atomic units:
                           1         2         3
     Eigenvalues --     2.93190 147.73985 150.67175
           X           -0.16091   0.98697   0.00000
           Y            0.98697   0.16091   0.00000
           Z            0.00000   0.00000   1.00000
 This molecule is an asymmetric top.
 Rotational symmetry number  1.
 Rotational temperatures (Kelvin)     29.54188     0.58626     0.57485
 Rotational constants (GHZ):         615.55362    12.21567    11.97797
 Zero-point vibrational energy      56701.5 (Joules/Mol)
                                   13.55197 (Kcal/Mol)
 Warning -- explicit consideration of   1 degrees of freedom as
           vibrations may cause significant error
 Vibrational temperatures:    788.93   898.09  1678.17  1897.54  3343.96
          (Kelvin)           5032.52

 Zero-point correction=                           0.021596 (Hartree/Particle)
 Thermal correction to Energy=                    0.024797
 Thermal correction to Enthalpy=                  0.025741
 Thermal correction to Gibbs Free Energy=        -0.001367
 Sum of electronic and zero-point Energies=           -164.710271
 Sum of electronic and thermal Energies=              -164.707071
 Sum of electronic and thermal Enthalpies=            -164.706127
 Sum of electronic and thermal Free Energies=         -164.733234

                     E (Thermal)             CV                S
                      KCal/Mol        Cal/Mol-Kelvin    Cal/Mol-Kelvin
 Total                   15.560              8.456             57.052
 Electronic               0.000              0.000              0.000
 Translational            0.889              2.981             37.204
 Rotational               0.889              2.981             18.818
 Vibrational             13.783              2.495              1.031
 Vibration     1          0.904              1.143              0.548

 Optimization completed.
    -- Stationary point found.
 Normal termination of Gaussian 09 at Fri Apr 25 16:17:24 2014.
