 Gaussian 09, Revision A.02,
 Gaussian 09:  AM64L-G09RevA.02 11-Jun-2009

 --------------------------------------------------
 #P M06 6-311G** FREQ # GFINPUT IOP(6/7=3) POP=FULL
 --------------------------------------------------

 ----------------------------------
 reverse IRC, from TS reverse1 freq
 ----------------------------------
 Symbolic Z-matrix:
 Charge =  0 Multiplicity = 2

                         Standard orientation:
 ---------------------------------------------------------------------
 Center     Atomic      Atomic             Coordinates (Angstroms)
 Number     Number       Type             X           Y           Z
 ---------------------------------------------------------------------
      1          7           0        0.192317   -0.135226   -0.007031
      2          7           0        1.320279    0.085774    0.022911
      3          7           0       -1.062889    0.002547   -0.106986
      4          1           0       -1.533006   -0.750356    0.386230
      5          1           0       -1.614940    1.078695    0.251513
 ---------------------------------------------------------------------

 SCF Done:  E(UM06) =  -165.247916715     A.U. after   20 cycles

 The electronic state is 2-A.
 Alpha  occ. eigenvalues --  -14.50509 -14.47951 -14.43133  -1.13565  -0.98535
 Alpha  occ. eigenvalues --   -0.66693  -0.56991  -0.50797  -0.45896  -0.42141
 Alpha  occ. eigenvalues --   -0.32056  -0.15820
 Alpha virt. eigenvalues --   -0.01089   0.02470   0.05311   0.21386   0.28778
 Alpha virt. eigenvalues --    0.35113   0.42808   0.48067   0.51399   0.56192
 Alpha virt. eigenvalues --    0.60521   0.65727   0.69598   0.69910   0.73934

  Beta  occ. eigenvalues --  -14.50133 -14.47868 -14.42123  -1.11815  -0.96793
  Beta  occ. eigenvalues --   -0.65898  -0.54938  -0.50063  -0.42878  -0.38651
  Beta  occ. eigenvalues --   -0.31385
  Beta virt. eigenvalues --   -0.04198   0.00598   0.03316   0.07297   0.22152
  Beta virt. eigenvalues --    0.31080   0.35102   0.42877   0.48038   0.51392
  Beta virt. eigenvalues --    0.57055   0.60609   0.66268   0.70156   0.70823

 Mulliken atomic charges:
              1
     1  N    0.085167
     2  N   -0.172083
     3  N   -0.293374
     4  H    0.273436
     5  H    0.106853
 Sum of Mulliken atomic charges =   0.00000

 Dipole moment (field-independent basis, Debye):
    X=             -2.7618    Y=             -0.5167    Z=              0.9879  Tot=              2.9783
 Quadrupole moment (field-independent basis, Debye-Ang):
   XX=            -18.7475   YY=            -16.5900   ZZ=            -17.7169
   XY=              0.8049   XZ=             -1.7823   YZ=             -0.5469

  Exact polarizability:  52.254 -11.138  24.089  -3.086   1.982  11.781
 Approx polarizability:  93.992 -16.319  31.591  -3.005   2.566  15.352

 ******    1 imaginary frequencies (negative Signs) ******

                     1                      2                      3
                     A                      A                      A
 Frequencies -- -1035.8735               384.3058               493.7143
 Red. masses --     1.5469                 3.0108                 3.3603
 Frc consts  --     0.9780                 0.2620                 0.4826
 IR Inten    --  1695.1826               197.1634                74.0674

                     4                      5                      6
                     A                      A                      A
 Frequencies --   877.9316              1115.1179              1339.7777
 Red. masses --     1.6773                 1.6330                 1.6286
 Frc consts  --     0.7617                 1.1964                 1.7224
 IR Inten    --   125.5065                50.0543                 3.3913

                     7                      8                      9
                     A                      A                      A
 Frequencies --  1550.3452              2172.9886              3537.1711
 Red. masses --     1.1202                10.6706                 1.0756
 Frc consts  --     1.5864                29.6860                 7.9291
 IR Inten    --    48.3255               189.7181                55.6349

 - Thermochemistry -
 -------------------
 Temperature   298.150 Kelvin.  Pressure   1.00000 Atm.
 Atom     1 has atomic number  7 and mass  14.00307

 Molecular mass:    44.02487 amu.
 Principal axes and moments of inertia in atomic units:
                           1         2         3
     Eigenvalues --     8.70580 163.92610 170.13528
           X            0.99964  -0.01404  -0.02293
           Y            0.01405   0.99990   0.00018
           Z            0.02292  -0.00050   0.99974
 This molecule is an asymmetric top.
 Rotational symmetry number  1.
 Rotational temperatures (Kelvin)      9.94898     0.52837     0.50909
 Rotational constants (GHZ):         207.30338    11.00948    10.60768
    1 imaginary frequencies ignored.
 Zero-point vibrational energy      68613.9 (Joules/Mol)
                                   16.39912 (Kcal/Mol)
 Warning -- explicit consideration of   2 degrees of freedom as
           vibrations may cause significant error
 Vibrational temperatures:    552.93   710.34  1263.15  1604.40  1927.64
          (Kelvin)           2230.60  3126.44  5089.19

 Zero-point correction=                           0.026134 (Hartree/Particle)
 Thermal correction to Energy=                    0.029616
 Thermal correction to Enthalpy=                  0.030560
 Thermal correction to Gibbs Free Energy=         0.001713
 Sum of electronic and zero-point Energies=           -165.221783
 Sum of electronic and thermal Energies=              -165.218301
 Sum of electronic and thermal Enthalpies=            -165.217357
 Sum of electronic and thermal Free Energies=         -165.246204

                     E (Thermal)             CV                S
                      KCal/Mol        Cal/Mol-Kelvin    Cal/Mol-Kelvin
 Total                   18.584              9.726             60.714
 Electronic               0.000              0.000              1.377
 Translational            0.889              2.981             37.273
 Rotational               0.889              2.981             20.124
 Vibrational             16.807              3.764              1.941
 Vibration     1          0.753              1.504              1.022
 Vibration     2          0.849              1.264              0.674

 Normal termination of Gaussian 09 at Fri Apr 25 17:10:01 2014.
