 Gaussian 09, Revision A.02,
 Gaussian 09:  AM64L-G09RevA.02 11-Jun-2009

 --------------------------------------------------
 #P M06 6-311G** FREQ # GFINPUT IOP(6/7=3) POP=FULL
 --------------------------------------------------

 ----------------------------------
 reverse IRC, from TS reverse1 freq
 ----------------------------------
 Symbolic Z-matrix:
 Charge =  0 Multiplicity = 2

                         Standard orientation:
 ---------------------------------------------------------------------
 Center     Atomic      Atomic             Coordinates (Angstroms)
 Number     Number       Type             X           Y           Z
 ---------------------------------------------------------------------
      1          7           0        0.191413   -0.155384   -0.014466
      2          7           0        1.327030    0.085227    0.023414
      3          7           0       -1.080344    0.041176   -0.092237
      4          1           0       -1.556239   -0.749430    0.328092
      5          1           0       -1.510454    0.952291    0.254927
 ---------------------------------------------------------------------

 SCF Done:  E(UM06) =  -165.269934207     A.U. after   20 cycles

 The electronic state is 2-A.
 Alpha  occ. eigenvalues --  -14.48353 -14.47082 -14.41675  -1.11644  -0.97469
 Alpha  occ. eigenvalues --   -0.68035  -0.58486  -0.49099  -0.45335  -0.41705
 Alpha  occ. eigenvalues --   -0.31742  -0.15026
 Alpha virt. eigenvalues --    0.00413   0.02691   0.07189   0.20375   0.33282
 Alpha virt. eigenvalues --    0.35326   0.43683   0.49061   0.51889   0.57940
 Alpha virt. eigenvalues --    0.61015   0.66252   0.70003   0.70531   0.74001

  Beta  occ. eigenvalues --  -14.47824 -14.46989 -14.40509  -1.09741  -0.95493
  Beta  occ. eigenvalues --   -0.66741  -0.57255  -0.48277  -0.41640  -0.37685
  Beta  occ. eigenvalues --   -0.31009
  Beta virt. eigenvalues --   -0.01954   0.01665   0.03510   0.08189   0.21338
  Beta virt. eigenvalues --    0.33577   0.35231   0.43908   0.49145   0.51932
  Beta virt. eigenvalues --    0.58808   0.61192   0.66515   0.70725   0.71848

 Mulliken atomic charges:
              1
     1  N    0.019521
     2  N   -0.186414
     3  N   -0.286908
     4  H    0.267859
     5  H    0.185941
 Sum of Mulliken atomic charges =   0.00000

 Dipole moment (field-independent basis, Debye):
    X=             -3.4997    Y=              0.0064    Z=              1.0431  Tot=              3.6519
 Quadrupole moment (field-independent basis, Debye-Ang):
   XX=            -17.9265   YY=            -16.0641   ZZ=            -17.5785
   XY=              0.1463   XZ=             -1.8942   YZ=             -0.2225

  Exact polarizability:  41.212  -3.577  18.184  -1.331   0.889  11.464
 Approx polarizability:  69.425  -3.843  23.284  -0.556   1.196  14.948

 ******    1 imaginary frequencies (negative Signs) ******

                     1                      2                      3
                     A                      A                      A
 Frequencies --  -299.4672               400.8115               791.8579
 Red. masses --     6.8688                 2.8193                 1.5608
 Frc consts  --     0.3629                 0.2669                 0.5766
 IR Inten    --    17.9603                23.4426               195.2219

                     4                      5                      6
                     A                      A                      A
 Frequencies --  1084.4799              1293.8099              1652.0197
 Red. masses --     3.0459                 1.3592                 1.0821
 Frc consts  --     2.1106                 1.3405                 1.7401
 IR Inten    --    17.7423                24.4906                13.2654

                     7                      8                      9
                     A                      A                      A
 Frequencies --  2089.5911              2822.6431              3542.6998
 Red. masses --    10.4815                 1.0633                 1.0757
 Frc consts  --    26.9647                 4.9916                 7.9546
 IR Inten    --   129.5930               203.9868                45.7190

 - Thermochemistry -
 -------------------
 Temperature   298.150 Kelvin.  Pressure   1.00000 Atm.
 Atom     1 has atomic number  7 and mass  14.00307

 Molecular mass:    44.02487 amu.
 Principal axes and moments of inertia in atomic units:
                           1         2         3
     Eigenvalues --     7.92080 165.49661 171.43732
           X            0.99977  -0.00637  -0.02031
           Y            0.00644   0.99997   0.00320
           Z            0.02029  -0.00333   0.99979
 This molecule is an asymmetric top.
 Rotational symmetry number  1.
 Rotational temperatures (Kelvin)     10.93499     0.52336     0.50522
 Rotational constants (GHZ):         227.84847    10.90500    10.52712
    1 imaginary frequencies ignored.
 Zero-point vibrational energy      81812.1 (Joules/Mol)
                                   19.55356 (Kcal/Mol)
 Warning -- explicit consideration of   1 degrees of freedom as
           vibrations may cause significant error
 Vibrational temperatures:    576.68  1139.31  1560.32  1861.50  2376.88
          (Kelvin)           3006.45  4061.15  5097.15

 Zero-point correction=                           0.031161 (Hartree/Particle)
 Thermal correction to Energy=                    0.034423
 Thermal correction to Enthalpy=                  0.035368
 Thermal correction to Gibbs Free Energy=         0.006873
 Sum of electronic and zero-point Energies=           -165.238774
 Sum of electronic and thermal Energies=              -165.235511
 Sum of electronic and thermal Enthalpies=            -165.234567
 Sum of electronic and thermal Free Energies=         -165.263061

                     E (Thermal)             CV                S
                      KCal/Mol        Cal/Mol-Kelvin    Cal/Mol-Kelvin
 Total                   21.601              8.591             59.972
 Electronic               0.000              0.000              1.377
 Translational            0.889              2.981             37.273
 Rotational               0.889              2.981             20.047
 Vibrational             19.824              2.630              1.275
 Vibration     1          0.767              1.468              0.960

 Normal termination of Gaussian 09 at Fri Apr 25 17:10:01 2014.
