 Gaussian 09, Revision A.02,
 Gaussian 09:  AM64L-G09RevA.02 11-Jun-2009

 --------------------------------------------------
 #P M06 6-311G** FREQ # GFINPUT IOP(6/7=3) POP=FULL
 --------------------------------------------------

 --------------------
 RC, from TS 2reverse
 --------------------
 Symbolic Z-matrix:
 Charge =  0 Multiplicity = 2

                         Standard orientation:
 ---------------------------------------------------------------------
 Center     Atomic      Atomic             Coordinates (Angstroms)
 Number     Number       Type             X           Y           Z
 ---------------------------------------------------------------------
      1          7           0        0.199830   -0.107834    0.007622
      2          7           0        1.311220    0.108502    0.019540
      3          7           0       -1.031614   -0.092753   -0.124840
      4          1           0       -1.480682   -0.775270    0.483331
      5          1           0       -1.875366    1.419871    0.200419
 ---------------------------------------------------------------------

 SCF Done:  E(UM06) =  -165.223125264     A.U. after   20 cycles

 The electronic state is 2-A.
 Alpha  occ. eigenvalues --  -14.57014 -14.47250 -14.45699  -1.17615  -1.00930
 Alpha  occ. eigenvalues --   -0.65556  -0.55919  -0.54564  -0.48163  -0.38939
 Alpha  occ. eigenvalues --   -0.32317  -0.21978
 Alpha virt. eigenvalues --   -0.03776   0.00712   0.03812   0.22319   0.25913
 Alpha virt. eigenvalues --    0.36479   0.41928   0.45517   0.50105   0.52853
 Alpha virt. eigenvalues --    0.60196   0.64567   0.67534   0.68822   0.74218

  Beta  occ. eigenvalues --  -14.56989 -14.46942 -14.45553  -1.17073  -1.00394
  Beta  occ. eigenvalues --   -0.65391  -0.54761  -0.54338  -0.47248  -0.36799
  Beta  occ. eigenvalues --   -0.31315
  Beta virt. eigenvalues --   -0.06596  -0.02411   0.02146   0.05097   0.22752
  Beta virt. eigenvalues --    0.36097   0.38555   0.41828   0.45617   0.50115
  Beta virt. eigenvalues --    0.53839   0.60429   0.65099   0.67885   0.68850

 Mulliken atomic charges:
              1
     1  N    0.226269
     2  N   -0.125316
     3  N   -0.321003
     4  H    0.266335
     5  H   -0.046285
 Sum of Mulliken atomic charges =  -0.00000

 Dipole moment (field-independent basis, Debye):
    X=             -0.6762    Y=             -1.7479    Z=              0.9755  Tot=              2.1128
 Quadrupole moment (field-independent basis, Debye-Ang):
   XX=            -20.8224   YY=            -17.9641   ZZ=            -17.7807
   XY=              2.6726   XZ=             -1.5802   YZ=             -1.1226

  Exact polarizability:  49.723  -7.187  22.079  -1.494   0.378  11.491
 Approx polarizability: 100.982  -5.877  26.070   0.713   0.018  14.847

 ******    1 imaginary frequencies (negative Signs) ******

                     1                      2                      3
                     A                      A                      A
 Frequencies --  -764.3777               270.6238               401.4460
 Red. masses --     1.1824                 1.2046                 1.3149
 Frc consts  --     0.4071                 0.0520                 0.1249
 IR Inten    --    31.9934                 9.7355                64.4816

                     4                      5                      6
                     A                      A                      A
 Frequencies --   567.8758               640.5075              1171.3121
 Red. masses --     4.9758                 3.0007                 1.7747
 Frc consts  --     0.9454                 0.7253                 1.4346
 IR Inten    --     8.3321                19.9458               144.7910

                     7                      8                      9
                     A                      A                      A
 Frequencies --  1289.0662              2274.7867              3523.3266
 Red. masses --     2.7511                12.1250                 1.0763
 Frc consts  --     2.6935                36.9669                 7.8721
 IR Inten    --     5.5005               431.4814                59.4864

 - Thermochemistry -
 -------------------
 Temperature   298.150 Kelvin.  Pressure   1.00000 Atm.
 Atom     1 has atomic number  7 and mass  14.00307

 Molecular mass:    44.02487 amu.
 Principal axes and moments of inertia in atomic units:
                           1         2         3
     Eigenvalues --    12.42722 162.78959 171.92901
           X            0.99899  -0.03730  -0.02490
           Y            0.03692   0.99920  -0.01565
           Z            0.02546   0.01471   0.99957
 This molecule is an asymmetric top.
 Rotational symmetry number  1.
 Rotational temperatures (Kelvin)      6.96968     0.53206     0.50378
 Rotational constants (GHZ):         145.22481    11.08634    10.49701
    1 imaginary frequencies ignored.
 Zero-point vibrational energy      60644.4 (Joules/Mol)
                                   14.49435 (Kcal/Mol)
 Warning -- explicit consideration of   3 degrees of freedom as
           vibrations may cause significant error
 Vibrational temperatures:    389.37   577.59   817.05   921.55  1685.25
          (Kelvin)           1854.68  3272.91  5069.27

 Zero-point correction=                           0.023098 (Hartree/Particle)
 Thermal correction to Energy=                    0.027045
 Thermal correction to Enthalpy=                  0.027989
 Thermal correction to Gibbs Free Energy=        -0.001777
 Sum of electronic and zero-point Energies=           -165.200027
 Sum of electronic and thermal Energies=              -165.196080
 Sum of electronic and thermal Enthalpies=            -165.195136
 Sum of electronic and thermal Free Energies=         -165.224903

                     E (Thermal)             CV                S
                      KCal/Mol        Cal/Mol-Kelvin    Cal/Mol-Kelvin
 Total                   16.971             11.586             62.649
 Electronic               0.000              0.000              1.377
 Translational            0.889              2.981             37.273
 Rotational               0.889              2.981             20.481
 Vibrational             15.194              5.624              3.518
 Vibration     1          0.674              1.727              1.592
 Vibration     2          0.767              1.467              0.957
 Vibration     3          0.924              1.101              0.508

 Normal termination of Gaussian 09 at Tue Apr 29 14:50:28 2014.
