 Gaussian 09, Revision A.02,
 Gaussian 09:  AM64L-G09RevA.02 11-Jun-2009

 --------------------------------------------------
 #P M06 6-311G** FREQ # GFINPUT IOP(6/7=3) POP=FULL
 --------------------------------------------------

 ---------------------
 RC, from TS reverse 9
 ---------------------
 Symbolic Z-matrix:
 Charge =  0 Multiplicity = 2

                         Standard orientation:
 ---------------------------------------------------------------------
 Center     Atomic      Atomic             Coordinates (Angstroms)
 Number     Number       Type             X           Y           Z
 ---------------------------------------------------------------------
      1          7           0        0.202016   -0.098413    0.010260
      2          7           0        1.310878    0.118495    0.018754
      3          7           0       -1.023717   -0.123935   -0.127884
      4          1           0       -1.456541   -0.793917    0.506319
      5          1           0       -1.967700    1.520891    0.185774
 ---------------------------------------------------------------------

 SCF Done:  E(UM06) =  -165.224487455     A.U. after   19 cycles

 The electronic state is 2-A.
 Alpha  occ. eigenvalues --  -14.57312 -14.47144 -14.44889  -1.17698  -1.00905
 Alpha  occ. eigenvalues --   -0.65200  -0.55510  -0.54660  -0.47992  -0.37738
 Alpha  occ. eigenvalues --   -0.32019  -0.23920
 Alpha virt. eigenvalues --   -0.03541   0.00939   0.03801   0.22754   0.25722
 Alpha virt. eigenvalues --    0.36798   0.42059   0.45515   0.50189   0.52628
 Alpha virt. eigenvalues --    0.60543   0.64452   0.67510   0.69002   0.74054

  Beta  occ. eigenvalues --  -14.57307 -14.46959 -14.44759  -1.17375  -1.00553
  Beta  occ. eigenvalues --   -0.65073  -0.54744  -0.54542  -0.47438  -0.35907
  Beta  occ. eigenvalues --   -0.30855
  Beta virt. eigenvalues --   -0.06106  -0.02499   0.02055   0.04981   0.23144
  Beta virt. eigenvalues --    0.36593   0.40522   0.41892   0.45760   0.50205
  Beta virt. eigenvalues --    0.53740   0.60703   0.65039   0.67772   0.69024

 Mulliken atomic charges:
              1
     1  N    0.234627
     2  N   -0.129692
     3  N   -0.327116
     4  H    0.262942
     5  H   -0.040760
 Sum of Mulliken atomic charges =  -0.00000

 Dipole moment (field-independent basis, Debye):
    X=             -0.6208    Y=             -1.6952    Z=              1.0521  Tot=              2.0895
 Quadrupole moment (field-independent basis, Debye-Ang):
   XX=            -20.9097   YY=            -17.8553   ZZ=            -17.6931
   XY=              2.5157   XZ=             -1.6726   YZ=             -1.1515

  Exact polarizability:  46.588  -4.339  19.923  -0.871  -0.124  11.409
 Approx polarizability:  94.074   0.277  22.681   1.726  -0.529  14.754

 ******    1 imaginary frequencies (negative Signs) ******

                     1                      2                      3
                     A                      A                      A
 Frequencies --  -193.3663               117.1919               288.3199
 Red. masses --     1.1488                 1.2155                 1.1980
 Frc consts  --     0.0253                 0.0098                 0.0587
 IR Inten    --    13.4293                 6.2955                76.7796

                     4                      5                      6
                     A                      A                      A
 Frequencies --   560.3772               626.6347              1165.0522
 Red. masses --     4.6933                 4.1385                 1.5852
 Frc consts  --     0.8683                 0.9575                 1.2677
 IR Inten    --    16.8580                11.4276               183.7824

                     7                      8                      9
                     A                      A                      A
 Frequencies --  1302.2169              2300.8706              3514.2598
 Red. masses --     3.8089                12.2847                 1.0759
 Frc consts  --     3.8055                38.3178                 7.8289
 IR Inten    --     1.5412               422.7671                58.1646

 - Thermochemistry -
 -------------------
 Temperature   298.150 Kelvin.  Pressure   1.00000 Atm.
 Atom     1 has atomic number  7 and mass  14.00307

 Molecular mass:    44.02487 amu.
 Principal axes and moments of inertia in atomic units:
                           1         2         3
     Eigenvalues --    13.94654 163.15782 173.62536
           X            0.99865  -0.04555  -0.02488
           Y            0.04505   0.99878  -0.02007
           Z            0.02576   0.01892   0.99949
 This molecule is an asymmetric top.
 Rotational symmetry number  1.
 Rotational temperatures (Kelvin)      6.21042     0.53086     0.49885
 Rotational constants (GHZ):         129.40422    11.06132    10.39446
    1 imaginary frequencies ignored.
 Zero-point vibrational energy      59065.2 (Joules/Mol)
                                   14.11691 (Kcal/Mol)
 Warning -- explicit consideration of   3 degrees of freedom as
           vibrations may cause significant error
 Vibrational temperatures:    168.61   414.83   806.26   901.59  1676.25
          (Kelvin)           1873.60  3310.44  5056.23

 Zero-point correction=                           0.022497 (Hartree/Particle)
 Thermal correction to Energy=                    0.026826
 Thermal correction to Enthalpy=                  0.027770
 Thermal correction to Gibbs Free Energy=        -0.003062
 Sum of electronic and zero-point Energies=           -165.201991
 Sum of electronic and thermal Energies=              -165.197661
 Sum of electronic and thermal Enthalpies=            -165.196717
 Sum of electronic and thermal Free Energies=         -165.227549

                     E (Thermal)             CV                S
                      KCal/Mol        Cal/Mol-Kelvin    Cal/Mol-Kelvin
 Total                   16.834             12.065             64.892
 Electronic               0.000              0.000              1.377
 Translational            0.889              2.981             37.273
 Rotational               0.889              2.981             20.607
 Vibrational             15.056              6.103              5.634
 Vibration     1          0.608              1.935              3.146
 Vibration     2          0.685              1.695              1.484
 Vibration     3          0.916              1.117              0.523

 Normal termination of Gaussian 09 at Tue Apr 29 14:53:57 2014.
