 Gaussian 03, Revision D.01,
 Gaussian 03:  IA32L-G03RevD.01 13-Oct-2005

 -------------------------------------------------------
 #P MP2/6-31G** freq=Numer # pop=full gfinput iop(6/7=3)
 -------------------------------------------------------

 ---
 job
 ---
 Symbolic Z-matrix:
 Charge =  0 Multiplicity = 2

                         Standard orientation:
 ---------------------------------------------------------------------
 Center     Atomic     Atomic              Coordinates (Angstroms)
 Number     Number      Type              X           Y           Z
 ---------------------------------------------------------------------
    1          1             0        0.000000    0.000000    0.000000
 ---------------------------------------------------------------------

 SCF Done:  E(UHF) = -0.498232909202     A.U. after    5 cycles
 E2 =     0.0000000000D+00 EUMP2 =    -0.49823290920158D+00
 SCF Done:  E(UHF) = -0.498232909202     A.U. after    1 cycles
 E2 =     0.0000000000D+00 EUMP2 =    -0.49823290920158D+00
 SCF Done:  E(UHF) = -0.498232909202     A.U. after    1 cycles
 E2 =     0.0000000000D+00 EUMP2 =    -0.49823290920158D+00
 SCF Done:  E(UHF) = -0.498232909202     A.U. after    1 cycles
 E2 =     0.0000000000D+00 EUMP2 =    -0.49823290920158D+00

 Alpha  occ. eigenvalues --   -0.49823
 Alpha virt. eigenvalues --    0.91619   2.23090   2.23090   2.23090
  Beta virt. eigenvalues --    0.09502   1.10807   2.36586   2.36586   2.36586

 Mulliken atomic charges:
              1
     1  H    0.000000
 Sum of Mulliken charges=   0.00000

 Dipole moment (field-independent basis, Debye):
    X=     0.0000    Y=     0.0000    Z=     0.0000  Tot=     0.0000
 Quadrupole moment (field-independent basis, Debye-Ang):
   XX=    -1.2855   YY=    -1.2855   ZZ=    -1.2855
   XY=     0.0000   XZ=     0.0000   YZ=     0.0000

 - Thermochemistry -
 -------------------
 Temperature   298.150 Kelvin.  Pressure   1.00000 Atm.
 Atom  1 has atomic number  1 and mass   1.00783
 Molecular mass:     1.00783 amu.
 Zero-point vibrational energy          0.0 (Joules/Mol)
                                    0.00000 (Kcal/Mol)
 Vibrational temperatures:
          (Kelvin)

 Zero-point correction=                           0.000000 (Hartree/Particle)
 Thermal correction to Energy=                    0.001416
 Thermal correction to Enthalpy=                  0.002360
 Thermal correction to Gibbs Free Energy=        -0.010654
 Sum of electronic and zero-point Energies=             -0.498233
 Sum of electronic and thermal Energies=                -0.496817
 Sum of electronic and thermal Enthalpies=              -0.495872
 Sum of electronic and thermal Free Energies=           -0.508887

                     E (Thermal)             CV                S
                      KCal/Mol        Cal/Mol-Kelvin    Cal/Mol-Kelvin
 Total                    0.889              2.981             27.392
 Electronic               0.000              0.000              1.377
 Translational            0.889              2.981             26.014
 Rotational               0.000              0.000              0.000
 Vibrational              0.000              0.000              0.000

 Optimization completed.
    -- Stationary point found.
 Normal termination of Gaussian 03 at Mon Aug 12 23:51:51 2013.
