 Gaussian 09, Revision D.01,
 Gaussian 09:  ES64L-G09RevD.01 24-Apr-2013

 ----------------------------------------------------
 #P B3LYP 6-311G** FREQ # POP=full GFINPUT IOP(6/7=3)
 ----------------------------------------------------

 ---------------
 point 1 forward
 ---------------
 Symbolic Z-matrix:
 Charge =  0 Multiplicity = 1

                         Standard orientation:
 ---------------------------------------------------------------------
 Center     Atomic      Atomic             Coordinates (Angstroms)
 Number     Number       Type             X           Y           Z
 ---------------------------------------------------------------------
      1          6           0        0.080505    0.621733    0.000000
      2          7           0        0.080505   -0.563032    0.000000
      3          1           0       -1.046563    0.210824    0.000000
 ---------------------------------------------------------------------

 SCF Done:  E(RB3LYP) =  -93.3753585582     A.U. after   12 cycles

 The electronic state is 1-A'.
 Alpha  occ. eigenvalues --  -14.38607 -10.23713  -0.99989  -0.52867  -0.46097
 Alpha  occ. eigenvalues --   -0.39471  -0.34445
 Alpha virt. eigenvalues --   -0.06176  -0.00008   0.02988   0.21660   0.30127
 Alpha virt. eigenvalues --    0.39538   0.40698   0.52597   0.54188   0.63098
 Alpha virt. eigenvalues --    0.63814   0.72691   0.99754   1.03003   1.24948

 Mulliken charges:
               1
     1  C   -0.075542
     2  N   -0.111598
     3  H    0.187139
 Sum of Mulliken charges =   0.00000

 Dipole moment (field-independent basis, Debye):
    X=             -1.2494    Y=              0.0344    Z=              0.0000  Tot=              1.2499
 Quadrupole moment (field-independent basis, Debye-Ang):
   XX=             -9.6443   YY=            -14.4185   ZZ=            -12.0648
   XY=             -0.2554   XZ=              0.0000   YZ=              0.0000

  Exact polarizability:  14.146   0.183  18.352   0.000   0.000  10.311
 Approx polarizability:  21.008   0.759  34.686   0.000   0.000  13.988

 ******    1 imaginary frequencies (negative Signs) ******

                      1                      2                      3
                     A'                     A'                     A'
 Frequencies --  -1109.0853              2060.2786              2576.7738
 Red. masses --      1.1672                11.8916                 1.0590
 Frc consts  --      0.8459                29.7400                 4.1429
 IR Inten    --     69.9842                13.0255               139.1926

 - Thermochemistry -
 -------------------
 Temperature   298.150 Kelvin.  Pressure   1.00000 Atm.
 Atom     1 has atomic number  6 and mass  12.00000

 Molecular mass:    27.01090 amu.
 Principal axes and moments of inertia in atomic units:
                           1         2         3
     Eigenvalues --     4.37328  32.59888  36.97217
           X           -0.03144   0.99951   0.00000
           Y            0.99951   0.03144   0.00000
           Z            0.00000   0.00000   1.00000
 This molecule is an asymmetric top.
 Rotational symmetry number  1.
 Rotational temperatures (Kelvin)     19.80522     2.65696     2.34268
 Rotational constants (GHZ):         412.67432    55.36205    48.81351
    1 imaginary frequencies ignored.
 Zero-point vibrational energy      27735.7 (Joules/Mol)
                                    6.62900 (Kcal/Mol)
 Vibrational temperatures:   2964.28  3707.40
          (Kelvin)

 Zero-point correction=                           0.010564 (Hartree/Particle)
 Thermal correction to Energy=                    0.013397
 Thermal correction to Enthalpy=                  0.014341
 Thermal correction to Gibbs Free Energy=        -0.010430
 Sum of electronic and zero-point Energies=            -93.364795
 Sum of electronic and thermal Energies=               -93.361962
 Sum of electronic and thermal Enthalpies=             -93.361017
 Sum of electronic and thermal Free Energies=          -93.385789

                     E (Thermal)             CV                S
                      KCal/Mol        Cal/Mol-Kelvin    Cal/Mol-Kelvin
 Total                    8.407              5.972             52.136
 Electronic               0.000              0.000              0.000
 Translational            0.889              2.981             35.816
 Rotational               0.889              2.981             16.318
 Vibrational              6.629              0.011              0.001

 Normal termination of Gaussian 09 at Thu Apr 14 13:06:42 2016.
