 Gaussian 09, Revision D.01,
 Gaussian 09:  ES64L-G09RevD.01 24-Apr-2013

 ----------------------------------------------------
 #P B3LYP 6-311G** FREQ # POP=full GFINPUT IOP(6/7=3)
 ----------------------------------------------------

 ---------------
 point 2 forward
 ---------------
 Symbolic Z-matrix:
 Charge =  0 Multiplicity = 1

                         Standard orientation:
 ---------------------------------------------------------------------
 Center     Atomic      Atomic             Coordinates (Angstroms)
 Number     Number       Type             X           Y           Z
 ---------------------------------------------------------------------
      1          6           0        0.080182    0.624879    0.000000
      2          7           0        0.080182   -0.560876    0.000000
      3          1           0       -1.042372    0.176857    0.000000
 ---------------------------------------------------------------------

 SCF Done:  E(RB3LYP) =  -93.3756554677     A.U. after   12 cycles

 The electronic state is 1-A'.
 Alpha  occ. eigenvalues --  -14.38619 -10.23862  -1.00263  -0.52674  -0.46373
 Alpha  occ. eigenvalues --   -0.39537  -0.34387
 Alpha virt. eigenvalues --   -0.05726  -0.00039   0.02699   0.21712   0.30002
 Alpha virt. eigenvalues --    0.39525   0.40664   0.52547   0.53945   0.63043
 Alpha virt. eigenvalues --    0.63756   0.72533   0.99544   1.03056   1.25877

 Mulliken charges:
               1
     1  C   -0.074640
     2  N   -0.112573
     3  H    0.187213
 Sum of Mulliken charges =   0.00000

 Dipole moment (field-independent basis, Debye):
    X=             -1.2452    Y=             -0.0119    Z=              0.0000  Tot=              1.2453
 Quadrupole moment (field-independent basis, Debye-Ang):
   XX=             -9.6366   YY=            -14.4759   ZZ=            -12.0723
   XY=             -0.2064   XZ=              0.0000   YZ=              0.0000

  Exact polarizability:  14.175   0.211  18.224   0.000   0.000  10.334
 Approx polarizability:  21.099   0.668  34.046   0.000   0.000  14.037

 ******    1 imaginary frequencies (negative Signs) ******

                      1                      2                      3
                     A'                     A'                     A'
 Frequencies --  -1075.7854              2055.3673              2551.4303
 Red. masses --      1.1663                11.7284                 1.0588
 Frc consts  --      0.7953                29.1922                 4.0611
 IR Inten    --     56.0865                15.6025               138.2749

 - Thermochemistry -
 -------------------
 Temperature   298.150 Kelvin.  Pressure   1.00000 Atm.
 Atom     1 has atomic number  6 and mass  12.00000

 Molecular mass:    27.01090 amu.
 Principal axes and moments of inertia in atomic units:
                           1         2         3
     Eigenvalues --     4.34654  32.59174  36.93829
           X           -0.02624   0.99966   0.00000
           Y            0.99966   0.02624   0.00000
           Z            0.00000   0.00000   1.00000
 This molecule is an asymmetric top.
 Rotational symmetry number  1.
 Rotational temperatures (Kelvin)     19.92706     2.65754     2.34482
 Rotational constants (GHZ):         415.21305    55.37419    48.85828
    1 imaginary frequencies ignored.
 Zero-point vibrational energy      27554.8 (Joules/Mol)
                                    6.58575 (Kcal/Mol)
 Vibrational temperatures:   2957.21  3670.93
          (Kelvin)

 Zero-point correction=                           0.010495 (Hartree/Particle)
 Thermal correction to Energy=                    0.013328
 Thermal correction to Enthalpy=                  0.014272
 Thermal correction to Gibbs Free Energy=        -0.010496
 Sum of electronic and zero-point Energies=            -93.365160
 Sum of electronic and thermal Energies=               -93.362327
 Sum of electronic and thermal Enthalpies=             -93.361383
 Sum of electronic and thermal Free Energies=          -93.386151

                     E (Thermal)             CV                S
                      KCal/Mol        Cal/Mol-Kelvin    Cal/Mol-Kelvin
 Total                    8.364              5.973             52.128
 Electronic               0.000              0.000              0.000
 Translational            0.889              2.981             35.816
 Rotational               0.889              2.981             16.311
 Vibrational              6.586              0.011              0.001

 Normal termination of Gaussian 09 at Thu Apr 14 13:06:42 2016.
