 Gaussian 09, Revision D.01,
 Gaussian 09:  ES64L-G09RevD.01 24-Apr-2013

 ----------------------------------------------------
 #P B3LYP 6-311G** FREQ # POP=full GFINPUT IOP(6/7=3)
 ----------------------------------------------------

 ---------------
 point 3 forward
 ---------------
 Symbolic Z-matrix:
 Charge =  0 Multiplicity = 1

                         Standard orientation:
 ---------------------------------------------------------------------
 Center     Atomic      Atomic             Coordinates (Angstroms)
 Number     Number       Type             X           Y           Z
 ---------------------------------------------------------------------
      1          6           0        0.079709    0.629059    0.000000
      2          7           0        0.079709   -0.558002    0.000000
      3          1           0       -1.036213    0.131659    0.000000
 ---------------------------------------------------------------------

 SCF Done:  E(RB3LYP) =  -93.3763345676     A.U. after   12 cycles

 The electronic state is 1-A'.
 Alpha  occ. eigenvalues --  -14.38597 -10.24069  -1.00607  -0.52420  -0.46734
 Alpha  occ. eigenvalues --   -0.39611  -0.34321
 Alpha virt. eigenvalues --   -0.05104  -0.00079   0.02315   0.21834   0.29851
 Alpha virt. eigenvalues --    0.39508   0.40616   0.52458   0.53661   0.62972
 Alpha virt. eigenvalues --    0.63690   0.72396   0.99330   1.03062   1.27068

 Mulliken charges:
               1
     1  C   -0.072472
     2  N   -0.114808
     3  H    0.187280
 Sum of Mulliken charges =   0.00000

 Dipole moment (field-independent basis, Debye):
    X=             -1.2404    Y=             -0.0664    Z=              0.0000  Tot=              1.2422
 Quadrupole moment (field-independent basis, Debye-Ang):
   XX=             -9.6281   YY=            -14.5432   ZZ=            -12.0805
   XY=             -0.1377   XZ=              0.0000   YZ=              0.0000

  Exact polarizability:  14.199   0.250  18.065   0.000   0.000  10.361
 Approx polarizability:  21.188   0.567  33.258   0.000   0.000  14.094

 ******    1 imaginary frequencies (negative Signs) ******

                      1                      2                      3
                     A'                     A'                     A'
 Frequencies --  -1009.6506              2048.6635              2521.9365
 Red. masses --      1.1657                11.4565                 1.0589
 Frc consts  --      0.7001                28.3299                 3.9680
 IR Inten    --     39.8602                19.5993               136.5949

 - Thermochemistry -
 -------------------
 Temperature   298.150 Kelvin.  Pressure   1.00000 Atm.
 Atom     1 has atomic number  6 and mass  12.00000

 Molecular mass:    27.01090 amu.
 Principal axes and moments of inertia in atomic units:
                           1         2         3
     Eigenvalues --     4.30392  32.59836  36.90228
           X           -0.01939   0.99981   0.00000
           Y            0.99981   0.01939   0.00000
           Z            0.00000   0.00000   1.00000
 This molecule is an asymmetric top.
 Rotational symmetry number  1.
 Rotational temperatures (Kelvin)     20.12442     2.65700     2.34711
 Rotational constants (GHZ):         419.32535    55.36294    48.90595
    1 imaginary frequencies ignored.
 Zero-point vibrational energy      27338.3 (Joules/Mol)
                                    6.53400 (Kcal/Mol)
 Vibrational temperatures:   2947.57  3628.50
          (Kelvin)

 Zero-point correction=                           0.010413 (Hartree/Particle)
 Thermal correction to Energy=                    0.013246
 Thermal correction to Enthalpy=                  0.014190
 Thermal correction to Gibbs Free Energy=        -0.010573
 Sum of electronic and zero-point Energies=            -93.365922
 Sum of electronic and thermal Energies=               -93.363089
 Sum of electronic and thermal Enthalpies=             -93.362145
 Sum of electronic and thermal Free Energies=          -93.386908

                     E (Thermal)             CV                S
                      KCal/Mol        Cal/Mol-Kelvin    Cal/Mol-Kelvin
 Total                    8.312              5.973             52.118
 Electronic               0.000              0.000              0.000
 Translational            0.889              2.981             35.816
 Rotational               0.889              2.981             16.300
 Vibrational              6.534              0.011              0.001

 Normal termination of Gaussian 09 at Thu Apr 14 13:06:42 2016.
