 Gaussian 09, Revision D.01,
 Gaussian 09:  ES64L-G09RevD.01 24-Apr-2013

 ----------------------------------------------------------------------
 #P B3LYP 6-311G** IRC=(reverse, maxpoints=10, stepsize=2, calcfc) # PO
 P=full GFINPUT IOP(6/7=3)
 ----------------------------------------------------------------------

 -----------------
 irc forward
 -----------------
 Symbolic Z-matrix:
 Charge =  0 Multiplicity = 1

 SCF Done:  E(RB3LYP) =  -93.3752569558     A.U. after   12 cycles
 SCF Done:  E(RB3LYP) =  -93.3752685516     A.U. after   10 cycles
 SCF Done:  E(RB3LYP) =  -93.3753024914     A.U. after   10 cycles
 SCF Done:  E(RB3LYP) =  -93.3753584873     A.U. after   10 cycles
 SCF Done:  E(RB3LYP) =  -93.3754362244     A.U. after   10 cycles
 SCF Done:  E(RB3LYP) =  -93.3755353228     A.U. after   10 cycles
 SCF Done:  E(RB3LYP) =  -93.3756553533     A.U. after   10 cycles
 SCF Done:  E(RB3LYP) =  -93.3757958358     A.U. after   10 cycles
 SCF Done:  E(RB3LYP) =  -93.3759562390     A.U. after   10 cycles
 SCF Done:  E(RB3LYP) =  -93.3761359799     A.U. after   10 cycles
 SCF Done:  E(RB3LYP) =  -93.3763344236     A.U. after   10 cycles

                          Input orientation:
 ---------------------------------------------------------------------
 Center     Atomic      Atomic             Coordinates (Angstroms)
 Number     Number       Type             X           Y           Z
 ---------------------------------------------------------------------
      1          6           0       -0.049584    0.000000   -0.633388
      2          7           0       -0.034698    0.000000    0.553582
      3          1           0        1.072487    0.000000   -0.150020
 ---------------------------------------------------------------------

 Alpha  occ. eigenvalues --  -14.38597 -10.24069  -1.00607  -0.52420  -0.46734
 Alpha  occ. eigenvalues --   -0.39611  -0.34321
 Alpha virt. eigenvalues --   -0.05104  -0.00079   0.02315   0.21834   0.29851
 Alpha virt. eigenvalues --    0.39508   0.40616   0.52458   0.53661   0.62972
 Alpha virt. eigenvalues --    0.63690   0.72395   0.99330   1.03062   1.27068

 Mulliken charges:
               1
     1  C   -0.072472
     2  N   -0.114808
     3  H    0.187279
 Sum of Mulliken charges =   0.00000

 Dipole moment (field-independent basis, Debye):
    X=              1.2412    Y=              0.0000    Z=              0.0509  Tot=              1.2422
 Quadrupole moment (field-independent basis, Debye-Ang):
   XX=             -9.5380   YY=            -12.0805   ZZ=            -14.5395
   XY=              0.0000   XZ=             -0.2040   YZ=              0.0000

  Exact polarizability:   0.000   0.000   0.000   0.000   0.000   0.000
 Approx polarizability:  21.204   0.000  14.094   0.719   0.000  33.242

 Normal termination of Gaussian 09 at Thu Apr 14 12:48:08 2016.
