                         Program Version 4.0.1.2 - RELEASE -
|  1> ! RKS BP def2-TZVP RI def2/J
|  2> ! TightSCF Grid5 NoFinalGrid
|  3> ! Freq
|  4> * xyz 0 2
|  5> C     -0.264044    0.000000    0.000000
|  6> H     -0.519209   -0.411764    0.966816
|  7> H     -0.519208   -0.631408   -0.840004
|  8> H     -0.519221    1.043166   -0.126811
|  9> H      1.132971    0.000008    0.000001
| 10> H      2.008933    0.000000   -0.000001
| 11> *
| 12>
| 13>                          ****END OF INPUT****

CARTESIAN COORDINATES (ANGSTROEM)
---------------------------------
  C     -0.264044    0.000000    0.000000
  H     -0.519209   -0.411764    0.966816
  H     -0.519208   -0.631408   -0.840004
  H     -0.519221    1.043166   -0.126811
  H      1.132971    0.000008    0.000001
  H      2.008933    0.000000   -0.000001

 Total Charge           Charge          ....    0
 Multiplicity           Mult            ....    2
 Number of Electrons    NEL             ....   11
 Basis Dimension        Dim             ....   61

ORBITAL ENERGIES
----------------
                 SPIN UP ORBITALS
  NO   OCC          E(Eh)            E(eV)
   0   1.0000      -9.908109      -269.6134
   1   1.0000      -0.643082       -17.4992
   2   1.0000      -0.409352       -11.1390
   3   1.0000      -0.377242       -10.2653
   4   1.0000      -0.377242       -10.2653
   5   1.0000      -0.185381        -5.0445
   6   0.0000       0.041470         1.1285
   7   0.0000       0.094956         2.5839
   8   0.0000       0.100022         2.7217
   9   0.0000       0.100022         2.7217
  10   0.0000       0.171672         4.6714

                 SPIN DOWN ORBITALS
  NO   OCC          E(Eh)            E(eV)
   0   1.0000      -9.897991      -269.3380
   1   1.0000      -0.620827       -16.8936
   2   1.0000      -0.378355       -10.2955
   3   1.0000      -0.369993       -10.0680
   4   1.0000      -0.369993       -10.0680
   5   0.0000      -0.116717        -3.1760
   6   0.0000       0.047324         1.2877
   7   0.0000       0.104408         2.8411
   8   0.0000       0.104408         2.8411
   9   0.0000       0.117173         3.1884

MULLIKEN ATOMIC CHARGES AND SPIN POPULATIONS
--------------------------------------------
   0 C :   -0.414964    0.629991
   1 H :    0.138456   -0.011070
   2 H :    0.138454   -0.011069
   3 H :    0.138453   -0.011067
   4 H :    0.045099   -0.095719
   5 H :   -0.045499    0.498933
Sum of atomic charges         :   -0.0000000

LOEWDIN ATOMIC CHARGES AND SPIN POPULATIONS
-------------------------------------------
   0 C :   -0.368521    0.537187
   1 H :    0.099264    0.004492
   2 H :    0.099264    0.004492
   3 H :    0.099264    0.004493
   4 H :    0.083317    0.050044
   5 H :   -0.012588    0.399291

  Mayer bond orders larger than 0.1
B(  0-C ,  1-H ) :   0.9671 B(  0-C ,  2-H ) :   0.9671 B(  0-C ,  3-H ) :   0.9671
B(  0-C ,  4-H ) :   0.4312 B(  4-H ,  5-H ) :   0.5897

FINAL SINGLE POINT ENERGY       -41.019865605757

DIPOLE MOMENT
-------------
                                X             Y             Z
Electronic contribution:     -2.19784      -0.00000       0.00000
Nuclear contribution   :      1.91948       0.00000       0.00000
                        -----------------------------------------
Total Dipole Moment    :     -0.27836      -0.00000       0.00000
                        -----------------------------------------
Magnitude (a.u.)       :      0.27836
Magnitude (Debye)      :      0.70754

VIBRATIONAL FREQUENCIES
-----------------------

   0:         0.00 cm**-1
   1:         0.00 cm**-1
   2:         0.00 cm**-1
   3:         0.00 cm**-1
   4:         0.00 cm**-1
   5:         0.00 cm**-1
   6:      -708.70 cm**-1 ***imaginary mode***
   7:       352.14 cm**-1
   8:       352.17 cm**-1
   9:      1014.90 cm**-1
  10:      1016.12 cm**-1
  11:      1016.12 cm**-1
  12:      1365.40 cm**-1
  13:      1365.41 cm**-1
  14:      2156.33 cm**-1
  15:      3103.24 cm**-1
  16:      3250.19 cm**-1
  17:      3250.19 cm**-1

IR SPECTRUM
-----------

 Mode    freq (cm**-1)   T**2         TX         TY         TZ
-------------------------------------------------------------------
   7:       352.14    0.000260  ( -0.000917  -0.009200  -0.013214)
   8:       352.17    0.000267  (  0.000765   0.013199  -0.009590)
   9:      1014.90    2.444430  (  1.563466   0.001957   0.000487)
  10:      1016.12    2.809505  ( -0.002682   1.645136   0.320977)
  11:      1016.12    2.809126  (  0.000113   0.321168  -1.644986)
  12:      1365.40    4.609853  (  0.006001  -2.131435  -0.258458)
  13:      1365.41    4.602969  (  0.000086  -0.259754   2.129671)
  14:      2156.33   60.479387  (  7.776849  -0.000100  -0.000014)
  15:      3103.24    0.740226  (  0.860363  -0.000750  -0.000169)
  16:      3250.19    7.948063  (  0.002104   2.646095   0.972747)
  17:      3250.19    7.947572  (  0.000365  -0.973151   2.645855)

--------------------------
THERMOCHEMISTRY AT 298.15K
--------------------------

Temperature         ... 298.15 K
Pressure            ... 1.00 atm
Total Mass          ... 17.05 AMU

Throughout the following assumptions are being made:
  (1) The electronic state is orbitally nondegenerate
      but the spin degeneracy is treated
  (2) There are no thermally accessible electronically excited states
  (3) Hindered rotations indicated by low frequency modes are not
      treated as such but are treated as vibrations and this may
      cause some error
  (4) All equations used are the standard statistical mechanics
      equations for an ideal gas
  (5) All vibrations are strictly harmonic

freq.     352.14  E(vib)   ...       0.23
freq.     352.17  E(vib)   ...       0.23
freq.    1014.90  E(vib)   ...       0.02
freq.    1016.12  E(vib)   ...       0.02
freq.    1016.12  E(vib)   ...       0.02
freq.    1365.40  E(vib)   ...       0.01
freq.    1365.41  E(vib)   ...       0.01
freq.    2156.33  E(vib)   ...       0.00
freq.    3103.24  E(vib)   ...       0.00
freq.    3250.19  E(vib)   ...       0.00
freq.    3250.19  E(vib)   ...       0.00

------------
INNER ENERGY
------------

The inner energy is: U= E(el) + E(ZPE) + E(vib) + E(rot) + E(trans)
    E(el)   - is the total energy from the electronic structure calculation
              = E(kin-el) + E(nuc-el) + E(el-el) + E(nuc-nuc)
    E(ZPE)  - the the zero temperature vibrational energy from the frequency calculation
    E(vib)  - the the finite temperature correction to E(ZPE) due to population
              of excited vibrational states
    E(rot)  - is the rotational thermal energy
    E(trans)- is the translational thermal energy

Summary of contributions to the inner energy U:
Electronic energy                ...    -41.01986561 Eh
Zero point energy                ...      0.04155879 Eh      26.08 kcal/mol
Thermal vibrational correction   ...      0.00083932 Eh       0.53 kcal/mol
Thermal rotational correction    ...      0.00141627 Eh       0.89 kcal/mol
Thermal translational correction ...      0.00141627 Eh       0.89 kcal/mol
-----------------------------------------------------------------------
Total thermal energy                    -40.97463495 Eh

Summary of corrections to the electronic energy:
(perhaps to be used in another calculation)
Total thermal correction                  0.00367187 Eh       2.30 kcal/mol
Non-thermal (ZPE) correction              0.04155879 Eh      26.08 kcal/mol
-----------------------------------------------------------------------
Total correction                          0.04523066 Eh      28.38 kcal/mol

--------
ENTHALPY
--------

The enthalpy is H = U + kB*T
                kB is Boltzmann's constant
Total free energy                 ...    -40.97463495 Eh
Thermal Enthalpy correction       ...      0.00094421 Eh       0.59 kcal/mol
-----------------------------------------------------------------------
Total Enthalpy                    ...    -40.97369074 Eh

Vibrational entropy computed according to the QRRHO of S. Grimme
Chem.Eur.J. 2012 18 9955

-------
ENTROPY
-------

The entropy contributions are T*S = T*(S(el)+S(vib)+S(rot)+S(trans)
     S(el)   - electronic entropy
     S(vib)  - vibrational entropy
     S(rot)  - rotational entropy
     S(trans)- translational entropy
The entropies will be listed as mutliplied by the temperature to get
units of energy

Electronic entropy                ...      0.00065446 Eh      0.41 kcal/mol
Vibrational entropy               ...      0.00124710 Eh      0.78 kcal/mol
Rotational entropy                ...      0.00706699 Eh      4.43 kcal/mol
Translational entropy             ...      0.01636591 Eh     10.27 kcal/mol
-----------------------------------------------------------------------
Final entropy term                ...      0.02533446 Eh     15.90 kcal/mol

CAUTION: The rotational entropy is not quite correctly treated here
         because it includes a symmetry number that is not yet correctly
         implemented in ORCA!
For a nonlinear molecule the correct rotational entropy is:
    S(rot) = R*(ln(qrot/sn)+1.5)
    R    = 8.31441 J/mol/K = 1.987191683e-3 kcal/mol/K
    qrot = 1192.0044191
    sn is the rotational symmetry number. We have assumed 3 here
       if it is different for your molecule then you should correct
       the printed rotational entropy by manually evaluating the equation
       as given above

For convenience we print out the resulting values for sn=1 - 12:
 sn= 1  qrot/sn=    1192.0044 T*S(rot)=     5.09 kcal/mol T*S(tot)=    16.55 kcal/mol
 sn= 2  qrot/sn=     596.0022 T*S(rot)=     4.67 kcal/mol T*S(tot)=    16.14 kcal/mol
 sn= 3  qrot/sn=     397.3348 T*S(rot)=     4.43 kcal/mol T*S(tot)=    15.90 kcal/mol
 sn= 4  qrot/sn=     298.0011 T*S(rot)=     4.26 kcal/mol T*S(tot)=    15.73 kcal/mol
 sn= 5  qrot/sn=     238.4009 T*S(rot)=     4.13 kcal/mol T*S(tot)=    15.59 kcal/mol
 sn= 6  qrot/sn=     198.6674 T*S(rot)=     4.02 kcal/mol T*S(tot)=    15.49 kcal/mol
 sn= 7  qrot/sn=     170.2863 T*S(rot)=     3.93 kcal/mol T*S(tot)=    15.40 kcal/mol
 sn= 8  qrot/sn=     149.0006 T*S(rot)=     3.85 kcal/mol T*S(tot)=    15.32 kcal/mol
 sn= 9  qrot/sn=     132.4449 T*S(rot)=     3.78 kcal/mol T*S(tot)=    15.25 kcal/mol
 sn=10  qrot/sn=     119.2004 T*S(rot)=     3.72 kcal/mol T*S(tot)=    15.18 kcal/mol
 sn=11  qrot/sn=     108.3640 T*S(rot)=     3.66 kcal/mol T*S(tot)=    15.13 kcal/mol
 sn=12  qrot/sn=      99.3337 T*S(rot)=     3.61 kcal/mol T*S(tot)=    15.08 kcal/mol

-------------------
GIBBS FREE ENTHALPY
-------------------

The Gibbs free enthalpy is G = H - T*S

Total enthalpy                    ...    -40.97369074 Eh
Total entropy correction          ...     -0.02533446 Eh    -15.90 kcal/mol
-----------------------------------------------------------------------
Final Gibbs free enthalpy         ...    -40.99902520 Eh

For completeness - the Gibbs free enthalpy minus the electronic energy
G-E(el)                           ...      0.02084041 Eh     13.08 kcal/mol

                             ****ORCA TERMINATED NORMALLY****
TOTAL RUN TIME: 0 days 0 hours 0 minutes 58 seconds 549 msec
