 Gaussian 09, Revision D.01,
 Gaussian 09:  ES64L-G09RevD.01 24-Apr-2013

 ----------------------------------------------------
 #P B3LYP 6-311G** FREQ # POP=full GFINPUT IOP(6/7=3)
 ----------------------------------------------------

 --------
 reactant
 --------
 Symbolic Z-matrix:
 Charge =  0 Multiplicity = 1

                         Standard orientation:
 ---------------------------------------------------------------------
 Center     Atomic      Atomic             Coordinates (Angstroms)
 Number     Number       Type             X           Y           Z
 ---------------------------------------------------------------------
      1          6           0        0.000000    0.000000   -0.497821
      2          7           0        0.000000    0.000000    0.650479
      3          1           0        0.000000    0.000000   -1.566421
 ---------------------------------------------------------------------

 SCF Done:  E(RB3LYP) =  -93.4520138101     A.U. after   11 cycles

 The electronic state is 1-SG.
 Alpha  occ. eigenvalues --  -14.33660 -10.22466  -0.93088  -0.61204  -0.38756
 Alpha  occ. eigenvalues --   -0.36974  -0.36974
 Alpha virt. eigenvalues --    0.01027   0.01027   0.04413   0.15580   0.39142
 Alpha virt. eigenvalues --    0.39142   0.43031   0.56733   0.59792   0.66878
 Alpha virt. eigenvalues --    0.66878   0.90201   1.14730   1.15043   1.15043

 Mulliken charges:
               1
     1  C    0.037869
     2  N   -0.216637
     3  H    0.178768
 Sum of Mulliken charges =   0.00000

 Dipole moment (field-independent basis, Debye):
    X=              0.0000    Y=              0.0000    Z=             -2.9436  Tot=              2.9436
 Quadrupole moment (field-independent basis, Debye-Ang):
   XX=            -11.5984   YY=            -11.5984   ZZ=             -9.7732
   XY=              0.0000   XZ=              0.0000   YZ=              0.0000

  Exact polarizability:   8.856   0.000   8.856   0.000   0.000  20.526
 Approx polarizability:  11.345   0.000  11.345   0.000   0.000  38.897

                      1                      2                      3
                     PI                     PI                     SG
 Frequencies --    797.9483               797.9483              2201.2510
 Red. masses --      1.3447                 1.3447                 4.9789
 Frc consts  --      0.5045                 0.5045                14.2142
 IR Inten    --     36.7556                36.7556                 1.4956

                      4
                     SG
 Frequencies --   3436.9149
 Red. masses --      1.1975
 Frc consts  --      8.3342
 IR Inten    --     62.3462

 - Thermochemistry -
 -------------------
 Temperature   298.150 Kelvin.  Pressure   1.00000 Atm.
 Atom     1 has atomic number  6 and mass  12.00000

 Molecular mass:    27.01090 amu.
 Principal axes and moments of inertia in atomic units:
                           1         2         3
     Eigenvalues --     0.00000  40.28929  40.28929
           X            0.00000   0.00000   1.00000
           Y            0.00000   1.00000   0.00000
           Z            1.00000   0.00000   0.00000
 This molecule is a prolate symmetric top.
 Rotational symmetry number  1.
 Rotational temperature (Kelvin)      2.14980
 Rotational constant (GHZ):          44.794566
 Zero-point vibrational energy      43269.3 (Joules/Mol)
                                   10.34161 (Kcal/Mol)
 Vibrational temperatures:   1148.07  1148.07  3167.11  4944.95
          (Kelvin)

 Zero-point correction=                           0.016480 (Hartree/Particle)
 Thermal correction to Energy=                    0.018999
 Thermal correction to Enthalpy=                  0.019943
 Thermal correction to Gibbs Free Energy=        -0.002874
 Sum of electronic and zero-point Energies=            -93.435533
 Sum of electronic and thermal Energies=               -93.433015
 Sum of electronic and thermal Enthalpies=             -93.432071
 Sum of electronic and thermal Free Energies=          -93.454888

                     E (Thermal)             CV                S
                      KCal/Mol        Cal/Mol-Kelvin    Cal/Mol-Kelvin
 Total                   11.922              6.282             48.023
 Electronic               0.000              0.000              0.000
 Translational            0.889              2.981             35.816
 Rotational               0.592              1.987             11.789
 Vibrational             10.441              1.314              0.419

 Normal termination of Gaussian 09 at Thu Apr 14 15:25:29 2016.
