                         Program Version 4.0.1.2 - RELEASE -
|  1> ! RKS BP def2-TZVP RI def2/J
|  2> ! TightSCF Grid5 NoFinalGrid
|  3> ! Freq
|  4> * xyz 0 1
|  5> C      0.000000    0.000000   -0.518698
|  6> N      0.000000    0.000000    0.674157
|  7> H      0.000000    0.000000   -1.606907
|  8> *
|  9>
| 10>                          ****END OF INPUT****

CARTESIAN COORDINATES (ANGSTROEM)
---------------------------------
  C      0.000000    0.000000   -0.518698
  N      0.000000    0.000000    0.674157
  H      0.000000    0.000000   -1.606907

 Total Charge           Charge          ....    0
 Multiplicity           Mult            ....    1
 Number of Electrons    NEL             ....   14
 Basis Dimension        Dim             ....   68

ORBITAL ENERGIES
----------------

  NO   OCC          E(Eh)            E(eV)
   0   2.0000     -14.035156      -381.9160
   1   2.0000      -9.964064      -271.1360
   2   2.0000      -0.835986       -22.7483
   3   2.0000      -0.557896       -15.1811
   4   2.0000      -0.342479        -9.3193
   5   2.0000      -0.326542        -8.8856
   6   2.0000      -0.326542        -8.8856
   7   0.0000      -0.049693        -1.3522
   8   0.0000      -0.049693        -1.3522
   9   0.0000       0.016618         0.4522
  10   0.0000       0.080252         2.1838
  11   0.0000       0.196200         5.3389

MULLIKEN ATOMIC CHARGES
-----------------------
   0 C :   -0.134058
   1 N :   -0.063134
   2 H :    0.197192
Sum of atomic charges:   -0.0000000

LOEWDIN ATOMIC CHARGES
----------------------
   0 C :   -0.168465
   1 N :    0.038797
   2 H :    0.129667

  Mayer bond orders larger than 0.1
B(  0-C ,  1-N ) :   3.0230 B(  0-C ,  2-H ) :   0.9224

FINAL SINGLE POINT ENERGY       -93.460002917841

DIPOLE MOMENT
-------------
                                X             Y             Z
Electronic contribution:      0.00000       0.00000       0.39587
Nuclear contribution   :      0.00000       0.00000      -1.55948
                        -----------------------------------------
Total Dipole Moment    :      0.00000       0.00000      -1.16360
                        -----------------------------------------
Magnitude (a.u.)       :      1.16360
Magnitude (Debye)      :      2.95764

VIBRATIONAL FREQUENCIES
-----------------------

   0:         0.00 cm**-1
   1:         0.00 cm**-1
   2:         0.00 cm**-1
   3:         0.00 cm**-1
   4:         0.00 cm**-1
   5:       780.66 cm**-1
   6:       780.66 cm**-1
   7:      1895.60 cm**-1
   8:      3229.50 cm**-1

IR SPECTRUM
-----------

 Mode    freq (cm**-1)   T**2         TX         TY         TZ
-------------------------------------------------------------------
   5:       780.66   41.873303  ( -6.368889  -1.144798  -0.000000)
   6:       780.66   41.873303  ( -1.144798   6.368889  -0.000000)
   7:      1895.60    0.007411  ( -0.000000   0.000000  -0.086084)
   8:      3229.50   57.858007  ( -0.000000   0.000000  -7.606445)

--------------------------
THERMOCHEMISTRY AT 298.15K
--------------------------

Temperature         ... 298.15 K
Pressure            ... 1.00 atm
Total Mass          ... 27.03 AMU
The molecule is recognized as being linear

Throughout the following assumptions are being made:
  (1) The electronic state is orbitally nondegenerate
  (2) There are no thermally accessible electronically excited states
  (3) Hindered rotations indicated by low frequency modes are not
      treated as such but are treated as vibrations and this may
      cause some error
  (4) All equations used are the standard statistical mechanics
      equations for an ideal gas
  (5) All vibrations are strictly harmonic

freq.     780.66  E(vib)   ...       0.05
freq.     780.66  E(vib)   ...       0.05
freq.    1895.60  E(vib)   ...       0.00
freq.    3229.50  E(vib)   ...       0.00

------------
INNER ENERGY
------------

The inner energy is: U= E(el) + E(ZPE) + E(vib) + E(rot) + E(trans)
    E(el)   - is the total energy from the electronic structure calculation
              = E(kin-el) + E(nuc-el) + E(el-el) + E(nuc-nuc)
    E(ZPE)  - the the zero temperature vibrational energy from the frequency calculation
    E(vib)  - the the finite temperature correction to E(ZPE) due to population
              of excited vibrational states
    E(rot)  - is the rotational thermal energy
    E(trans)- is the translational thermal energy

Summary of contributions to the inner energy U:
Electronic energy                ...    -93.46000292 Eh
Zero point energy                ...      0.01523281 Eh       9.56 kcal/mol
Thermal vibrational correction   ...      0.00016927 Eh       0.11 kcal/mol
Thermal rotational correction    ...      0.00094418 Eh       0.59 kcal/mol
Thermal translational correction ...      0.00141627 Eh       0.89 kcal/mol
-----------------------------------------------------------------------
Total thermal energy                    -93.44224038 Eh

Summary of corrections to the electronic energy:
(perhaps to be used in another calculation)
Total thermal correction                  0.00252973 Eh       1.59 kcal/mol
Non-thermal (ZPE) correction              0.01523281 Eh       9.56 kcal/mol
-----------------------------------------------------------------------
Total correction                          0.01776254 Eh      11.15 kcal/mol

--------
ENTHALPY
--------

The enthalpy is H = U + kB*T
                kB is Boltzmann's constant
Total free energy                 ...    -93.44224038 Eh
Thermal Enthalpy correction       ...      0.00094421 Eh       0.59 kcal/mol
-----------------------------------------------------------------------
Total Enthalpy                    ...    -93.44129617 Eh

Vibrational entropy computed according to the QRRHO of S. Grimme
Chem.Eur.J. 2012 18 9955

-------
ENTROPY
-------

The entropy contributions are T*S = T*(S(el)+S(vib)+S(rot)+S(trans)
     S(el)   - electronic entropy
     S(vib)  - vibrational entropy
     S(rot)  - rotational entropy
     S(trans)- translational entropy
The entropies will be listed as mutliplied by the temperature to get
units of energy

Electronic entropy                ...      0.00000000 Eh      0.00 kcal/mol
Vibrational entropy               ...      0.00021369 Eh      0.13 kcal/mol
Rotational entropy                ...      0.00501322 Eh      3.15 kcal/mol
Translational entropy             ...      0.01701823 Eh     10.68 kcal/mol
-----------------------------------------------------------------------
Final entropy term                ...      0.02224514 Eh     13.96 kcal/mol

CAUTION: The rotational entropy is not quite correctly treated here
         because it includes a symmetry number that is not yet correctly
         implemented in ORCA!
For a linear molecule the correct rotational entropy is:
    S(rot) = R*(ln(qrot/sn)+1)
    R    = 8.31441 J/mol/K = 1.987191683e-3 kcal/mol/K
    qrot =  148.8208821
    sn is the rotational symmetry number. We have assumed 2 here
       if it is different for your molecule then you should correct
       the printed rotational entropy by manually evaluating the equation
       as given above

For convenience we print out the resulting values for sn=1 - 12:
 sn= 1  qrot/sn=     148.8209 T*S(rot)=     3.56 kcal/mol T*S(tot)=    14.37 kcal/mol
 sn= 2  qrot/sn=      74.4104 T*S(rot)=     3.15 kcal/mol T*S(tot)=    13.96 kcal/mol
 sn= 3  qrot/sn=      49.6070 T*S(rot)=     2.91 kcal/mol T*S(tot)=    13.72 kcal/mol
 sn= 4  qrot/sn=      37.2052 T*S(rot)=     2.74 kcal/mol T*S(tot)=    13.55 kcal/mol
 sn= 5  qrot/sn=      29.7642 T*S(rot)=     2.60 kcal/mol T*S(tot)=    13.42 kcal/mol
 sn= 6  qrot/sn=      24.8035 T*S(rot)=     2.49 kcal/mol T*S(tot)=    13.31 kcal/mol
 sn= 7  qrot/sn=      21.2601 T*S(rot)=     2.40 kcal/mol T*S(tot)=    13.22 kcal/mol
 sn= 8  qrot/sn=      18.6026 T*S(rot)=     2.32 kcal/mol T*S(tot)=    13.14 kcal/mol
 sn= 9  qrot/sn=      16.5357 T*S(rot)=     2.25 kcal/mol T*S(tot)=    13.07 kcal/mol
 sn=10  qrot/sn=      14.8821 T*S(rot)=     2.19 kcal/mol T*S(tot)=    13.01 kcal/mol
 sn=11  qrot/sn=      13.5292 T*S(rot)=     2.14 kcal/mol T*S(tot)=    12.95 kcal/mol
 sn=12  qrot/sn=      12.4017 T*S(rot)=     2.08 kcal/mol T*S(tot)=    12.90 kcal/mol

-------------------
GIBBS FREE ENTHALPY
-------------------

The Gibbs free enthalpy is G = H - T*S

Total enthalpy                    ...    -93.44129617 Eh
Total entropy correction          ...     -0.02224514 Eh    -13.96 kcal/mol
-----------------------------------------------------------------------
Final Gibbs free enthalpy         ...    -93.46354132 Eh

For completeness - the Gibbs free enthalpy minus the electronic energy
G-E(el)                           ...     -0.00353840 Eh     -2.22 kcal/mol

                             ****ORCA TERMINATED NORMALLY****
TOTAL RUN TIME: 0 days 0 hours 0 minutes 17 seconds 297 msec
