 Gaussian 03, Revision C.02,
 Gaussian 03:  AM64L-G03RevC.02 12-Jun-2004

 ----------------------------------------------------------------------
 #P MP2 6-31G** iop(6/7=3) gfinput pop=full # opt=(ts,noeig,calcfc) fre
 q
 ----------------------------------------------------------------------

 ---
 job
 ---
 Symbolic Z-matrix:
 Charge =  0 Multiplicity = 2

 SCF Done:  E(UHF) =  -40.6613204208     A.U. after   14 cycles
 E2 =    -0.1674707336D+00 EUMP2 =    -0.40828791154322D+02
 SCF Done:  E(UHF) =  -40.6624195778     A.U. after   14 cycles
 E2 =    -0.1650656550D+00 EUMP2 =    -0.40827485232834D+02
 SCF Done:  E(UHF) =  -40.6625312977     A.U. after   15 cycles
 E2 =    -0.1650036352D+00 EUMP2 =    -0.40827534932870D+02
 SCF Done:  E(UHF) =  -40.6623202905     A.U. after   16 cycles
 E2 =    -0.1652200005D+00 EUMP2 =    -0.40827540291073D+02
 Optimization completed.
    -- Stationary point found.

 1\1\GINC-AN181\FTS\UMP2-FC\6-31G(d,p)\C1H5(2)\SCANNE04\10-Apr-2013\0\\
 #P MP2 6-31G** IOP(6/7=3) GFINPUT POP=FULL # OPT=(TS,NOEIG,CALCFC) FRE
 Q\\job\\0,2\C,0.1117563302,-0.2271265855,0.0751229129\H,0.0876189556,-
 0.1784241095,1.1551401659\H,1.1023720092,-0.1788875813,-0.3558589056\H
 ,-0.5307190247,-0.9825397296,-0.3561173005\H,-0.4795341818,0.974558886
 2,-0.3223421319\H,-0.8502757395,1.7280520471,-0.5715593054\\Version=AM
 64L-G03RevC.02\State=2-A\HF=-40.6623203\MP2=-40.8275403\PUHF=-40.66946
 54\PMP2-0=-40.8323867\S2=0.785734\S2-1=0.762602\S2A=0.750362\RMSD=4.76

 Normal termination of Gaussian 03 at Wed Apr 10 02:59:30 2013.

 ----------------------------------------------------------------------
 #P Geom=AllCheck Guess=Read SCRF=Check Test GenChk UMP2(FC)/6-31G(d,p)
  Freq
 ----------------------------------------------------------------------

 job
 ---
 Redundant internal coordinates taken from checkpoint file:
 /local/run/antares-adm.114830.0/Gau-8655.chk
 Charge =  0 Multiplicity = 2

                         Standard orientation:
 ---------------------------------------------------------------------
 Center     Atomic     Atomic              Coordinates (Angstroms)
 Number     Number      Type              X           Y           Z
 ---------------------------------------------------------------------
    1          6             0       -0.264044    0.000000    0.000000
    2          1             0       -0.519209   -0.411764    0.966816
    3          1             0       -0.519208   -0.631408   -0.840004
    4          1             0       -0.519221    1.043166   -0.126811
    5          1             0        1.132971    0.000008    0.000001
    6          1             0        2.008933    0.000000   -0.000001
 ---------------------------------------------------------------------

 SCF Done:  E(UHF) =  -40.6623202905     A.U. after    1 cycles
 E2 =    -0.1652200008D+00 EUMP2 =    -0.40827540291382D+02

 The electronic state is 2-A.
 Alpha  occ. eigenvalues --  -11.24153  -0.97111  -0.62829  -0.57806  -0.57806
 Alpha  occ. eigenvalues --   -0.35430
 Alpha virt. eigenvalues --    0.25451   0.31611   0.31611   0.35209   0.71168
 Alpha virt. eigenvalues --    0.71168   0.74780   0.89857   1.13743   1.13743
 Alpha virt. eigenvalues --    1.17246   1.22276   1.41222   1.62345   1.62345

  Beta  occ. eigenvalues --  -11.22070  -0.90281  -0.56499  -0.56499  -0.53928
  Beta virt. eigenvalues --    0.11265   0.26775   0.32711   0.32711   0.40278
  Beta virt. eigenvalues --    0.71687   0.71687   0.84905   0.95395   1.14964
  Beta virt. eigenvalues --    1.14964   1.19301   1.24545   1.44029   1.66510

 Mulliken atomic charges:
              1
     1  C   -0.383513
     2  H    0.139993
     3  H    0.139993
     4  H    0.139993
     5  H   -0.016766
     6  H   -0.019699
 Sum of Mulliken charges=   0.00000

 Dipole moment (field-independent basis, Debye):
    X=    -0.8852    Y=     0.0000    Z=     0.0000  Tot=     0.8852
 Quadrupole moment (field-independent basis, Debye-Ang):
   XX=   -11.4144   YY=    -9.3516   ZZ=    -9.3516
   XY=     0.0000   XZ=     0.0000   YZ=     0.0000

  Exact polarizability:  27.515   0.000  12.530   0.000   0.000  12.530
 Approx polarizability:  17.363   0.000  10.099   0.000   0.000  10.099

 ******    1 imaginary frequencies (negative Signs) ******

                     1                      2                      3
                     A                      A                      A
 Frequencies -- -1770.0579               570.0592               570.0614
 Red. masses --     1.1274                 1.0466                 1.0466
 Frc consts  --     2.0811                 0.2004                 0.2004
 IR Inten    --     1.1945                 0.7747                 0.7747

                     4                      5                      6
                     A                      A                      A
 Frequencies --  1139.3232              1203.1477              1203.1480
 Red. masses --     1.0822                 1.0490                 1.0490
 Frc consts  --     0.8277                 0.8947                 0.8947
 IR Inten    --     3.2626                 0.6543                 0.6543

                     7                      8                      9
                     A                      A                      A
 Frequencies --  1502.7396              1502.7400              1903.6500
 Red. masses --     1.0750                 1.0750                 1.1029
 Frc consts  --     1.4304                 1.4304                 2.3549
 IR Inten    --     2.5651                 2.5651                 8.6098

                    10                     11                     12
                     A                      A                      A
 Frequencies --  3185.6870              3349.6264              3349.6268
 Red. masses --     1.0179                 1.1125                 1.1125
 Frc consts  --     6.0864                 7.3543                 7.3543
 IR Inten    --     0.6241                 9.1266                 9.1266

 - Thermochemistry -
 -------------------
 Temperature   298.150 Kelvin.  Pressure   1.00000 Atm.
 Atom  1 has atomic number  6 and mass  12.00000

 Molecular mass:    17.03913 amu.
 Principal axes and moments of inertia in atomic units:
                           1         2         3
     EIGENVALUES --    11.92295  30.48669  30.48670
           X            1.00000   0.00000   0.00000
           Y            0.00000   1.00000   0.00000
           Z            0.00000   0.00000   1.00000
 This molecule is an asymmetric top.
 Rotational symmetry number  1.
 Rotational temperatures (Kelvin)      7.26446     2.84104     2.84104
 Rotational constants (GHZ):         151.36701    59.19767    59.19767
    1 imaginary frequencies ignored.
 Zero-point vibrational energy     116515.1 (Joules/Mol)
                                   27.84779 (Kcal/Mol)
 Warning -- explicit consideration of   2 degrees of freedom as
           vibrations may cause significant error
 Vibrational temperatures:    820.19   820.19  1639.23  1731.06  1731.06
          (Kelvin)           2162.10  2162.11  2738.92  4583.49  4819.36
                             4819.36

 Zero-point correction=                           0.044378 (Hartree/Particle)
 Thermal correction to Energy=                    0.047630
 Thermal correction to Enthalpy=                  0.048574
 Thermal correction to Gibbs Free Energy=         0.022896
 Sum of electronic and zero-point Energies=            -40.783162
 Sum of electronic and thermal Energies=               -40.779910
 Sum of electronic and thermal Enthalpies=             -40.778966
 Sum of electronic and thermal Free Energies=          -40.804644

                     E (Thermal)             CV                S
                      KCal/Mol        Cal/Mol-Kelvin    Cal/Mol-Kelvin
 Total                   29.888              8.973             54.045
 Electronic               0.000              0.000              1.377
 Translational            0.889              2.981             34.443
 Rotational               0.889              2.981             17.056
 Vibrational             28.111              3.011              1.168
 Vibration  1             0.926              1.096              0.504
 Vibration  2             0.926              1.096              0.504

 Optimization completed.
    -- Stationary point found.
 Normal termination of Gaussian 03 at Wed Apr 10 02:59:40 2013.
