 Gaussian 09, Revision D.01,
 Gaussian 09:  ES64L-G09RevD.01 24-Apr-2013

 ----------------------------------------------------
 #P B3LYP 6-311G** FREQ # POP=full GFINPUT IOP(6/7=3)
 ----------------------------------------------------

 ---------------
 point 3 reverse
 ---------------
 Symbolic Z-matrix:
 Charge =  0 Multiplicity = 1

                         Standard orientation:
 ---------------------------------------------------------------------
 Center     Atomic      Atomic             Coordinates (Angstroms)
 Number     Number       Type             X           Y           Z
 ---------------------------------------------------------------------
      1          6           0        0.081377    0.609058    0.000000
      2          7           0        0.081377   -0.571679    0.000000
      3          1           0       -1.057904    0.347411    0.000000
 ---------------------------------------------------------------------

 SCF Done:  E(RB3LYP) =  -93.3761764474     A.U. after   12 cycles

 The electronic state is 1-A'.
 Alpha  occ. eigenvalues --  -14.38353 -10.23194  -0.98829  -0.53619  -0.45011
 Alpha  occ. eigenvalues --   -0.39147  -0.34730
 Alpha virt. eigenvalues --   -0.07711   0.00118   0.04094   0.21693   0.30749
 Alpha virt. eigenvalues --    0.39579   0.40806   0.52776   0.55273   0.63307
 Alpha virt. eigenvalues --    0.64109   0.73723   1.00865   1.02389   1.21460

 Mulliken charges:
               1
     1  C   -0.074092
     2  N   -0.112837
     3  H    0.186929
 Sum of Mulliken charges =   0.00000

 Dipole moment (field-independent basis, Debye):
    X=             -1.2688    Y=              0.2630    Z=              0.0000  Tot=              1.2958
 Quadrupole moment (field-independent basis, Debye-Ang):
   XX=             -9.6884   YY=            -14.1366   ZZ=            -12.0242
   XY=             -0.4317   XZ=              0.0000   YZ=              0.0000

  Exact polarizability:  13.928   0.075  18.881   0.000   0.000  10.196
 Approx polarizability:  20.438   1.209  37.446   0.000   0.000  13.748

 ******    1 imaginary frequencies (negative Signs) ******

                      1                      2                      3
                     A'                     A'                     A'
 Frequencies --  -1121.5331              2079.5427              2692.6515
 Red. masses --      1.1739                12.1653                 1.0614
 Frc consts  --      0.8700                30.9963                 4.5341
 IR Inten    --    129.8528                 5.9337               139.2652

 - Thermochemistry -
 -------------------
 Temperature   298.150 Kelvin.  Pressure   1.00000 Atm.
 Atom     1 has atomic number  6 and mass  12.00000

 Molecular mass:    27.01090 amu.
 Principal axes and moments of inertia in atomic units:
                           1         2         3
     Eigenvalues --     4.41981  32.73486  37.15467
           X           -0.05224   0.99863   0.00000
           Y            0.99863   0.05224   0.00000
           Z            0.00000   0.00000   1.00000
 This molecule is an asymmetric top.
 Rotational symmetry number  1.
 Rotational temperatures (Kelvin)     19.59672     2.64592     2.33117
 Rotational constants (GHZ):         408.32983    55.13210    48.57374
    1 imaginary frequencies ignored.
 Zero-point vibrational energy      28544.1 (Joules/Mol)
                                    6.82219 (Kcal/Mol)
 Vibrational temperatures:   2991.99  3874.12
          (Kelvin)

 Zero-point correction=                           0.010872 (Hartree/Particle)
 Thermal correction to Energy=                    0.013705
 Thermal correction to Enthalpy=                  0.014649
 Thermal correction to Gibbs Free Energy=        -0.010131
 Sum of electronic and zero-point Energies=            -93.365305
 Sum of electronic and thermal Energies=               -93.362472
 Sum of electronic and thermal Enthalpies=             -93.361527
 Sum of electronic and thermal Free Energies=          -93.386308

                     E (Thermal)             CV                S
                      KCal/Mol        Cal/Mol-Kelvin    Cal/Mol-Kelvin
 Total                    8.600              5.971             52.155
 Electronic               0.000              0.000              0.000
 Translational            0.889              2.981             35.816
 Rotational               0.889              2.981             16.338
 Vibrational              6.822              0.010              0.001

 Normal termination of Gaussian 09 at Thu Apr 14 13:06:42 2016.
