                         Program Version 4.0.1.2 - RELEASE -
|  1> ! RKS BP def2-TZVP RI def2/J
|  2> ! TightSCF Grid5 NoFinalGrid
|  3> * xyz 0 2
|  4> F      0.000000    0.000000    0.000000
|  5> *
|  6>
|  7>                          ****END OF INPUT****

CARTESIAN COORDINATES (ANGSTROEM)
---------------------------------
  F      0.000000    0.000000    0.000000

 Total Charge           Charge          ....    0
 Multiplicity           Mult            ....    2
 Number of Electrons    NEL             ....    9
 Basis Dimension        Dim             ....   31

ORBITAL ENERGIES
----------------
                 SPIN UP ORBITALS
  NO   OCC          E(Eh)            E(eV)
   0   1.0000     -24.375998      -663.3046
   1   1.0000      -1.123526       -30.5727
   2   1.0000      -0.494455       -13.4548
   3   1.0000      -0.405356       -11.0303
   4   1.0000      -0.405356       -11.0303
   5   0.0000       0.406946        11.0736
   6   0.0000       0.446454        12.1486
   7   0.0000       0.475083        12.9277
   8   0.0000       0.475083        12.9277
   9   0.0000       1.779698        48.4280

                 SPIN DOWN ORBITALS
  NO   OCC          E(Eh)            E(eV)
   0   1.0000     -24.346738      -662.5084
   1   1.0000      -1.049776       -28.5658
   2   1.0000      -0.377429       -10.2704
   3   1.0000      -0.377428       -10.2704
   4   0.0000      -0.337916        -9.1952
   5   0.0000       0.432513        11.7693
   6   0.0000       0.484362        13.1801
   7   0.0000       0.484362        13.1802
   8   0.0000       0.507187        13.8013

MULLIKEN ATOMIC CHARGES AND SPIN POPULATIONS
--------------------------------------------
   0 F :   -0.000000    1.000000
Sum of atomic charges         :   -0.0000000

LOEWDIN ATOMIC CHARGES AND SPIN POPULATIONS
-------------------------------------------
   0 F :    0.000000    1.000000

FINAL SINGLE POINT ENERGY       -99.764704372885

DIPOLE MOMENT
-------------
                                X             Y             Z
Electronic contribution:     -0.00000       0.00000      -0.00000
Nuclear contribution   :      0.00000       0.00000       0.00000
                        -----------------------------------------
Total Dipole Moment    :     -0.00000       0.00000      -0.00000
                        -----------------------------------------
Magnitude (a.u.)       :      0.00000
Magnitude (Debye)      :      0.00000

                             ****ORCA TERMINATED NORMALLY****
TOTAL RUN TIME: 0 days 0 hours 0 minutes 0 seconds 687 msec
