 Gaussian 09, Revision D.01,
 Gaussian 09:  ES64L-G09RevD.01 24-Apr-2013

 ------------------------------------------
 #P HF 6-31G* OPT FREQ # GFINPUT IOP(6/7=3)
 ------------------------------------------

 -----------
 equilibrium
 -----------
 Symbolic Z-matrix:
 Charge =  0 Multiplicity = 1

 SCF Done:  E(RHF) =  -1.09114110880     A.U. after    4 cycles
 SCF Done:  E(RHF) =  -1.11714750878     A.U. after    5 cycles
 SCF Done:  E(RHF) =  -1.12668164614     A.U. after    5 cycles
 SCF Done:  E(RHF) =  -1.12682777135     A.U. after    4 cycles
 Optimization completed.
    -- Stationary point found.
 Normal termination of Gaussian 09 at Fri Apr 15 17:23:33 2016.

 ----------------------------------------------------------------------
 #P Geom=AllCheck Guess=TCheck SCRF=Check Test GenChk RHF/6-31G(d) Freq
 ----------------------------------------------------------------------

 Structure from the checkpoint file:  "/scratch_l/henon/h2_6928/Gau-6939.chk"
 -----------
 equilibrium
 -----------
 Charge =  0 Multiplicity = 1

                         Standard orientation:
 ---------------------------------------------------------------------
 Center     Atomic      Atomic             Coordinates (Angstroms)
 Number     Number       Type             X           Y           Z
 ---------------------------------------------------------------------
      1          1           0        0.000000    0.000000    0.365116
      2          1           0        0.000000    0.000000   -0.365116
 ---------------------------------------------------------------------

 SCF Done:  E(RHF) =  -1.12682777135     A.U. after    1 cycles

 The electronic state is 1-SGG.
 Alpha  occ. eigenvalues --   -0.59880
 Alpha virt. eigenvalues --    0.24108   0.77002   1.41750

 Mulliken charges:
               1
     1  H    0.000000
     2  H    0.000000
 Sum of Mulliken charges =   0.00000

 Dipole moment (field-independent basis, Debye):
    X=              0.0000    Y=              0.0000    Z=              0.0000  Tot=              0.0000
 Quadrupole moment (field-independent basis, Debye-Ang):
   XX=             -2.0279   YY=             -2.0279   ZZ=             -1.6135
   XY=              0.0000   XZ=              0.0000   YZ=              0.0000

  Exact polarizability:   0.000   0.000   0.000   0.000   0.000   6.355
 Approx polarizability:   0.000   0.000   0.000   0.000   0.000   4.951

                      1
                     SGG
 Frequencies --   4642.0882
 Red. masses --      1.0078
 Frc consts  --     12.7956
 IR Inten    --      0.0000
 Raman Activ --     89.3977

 - Thermochemistry -
 -------------------
 Temperature   298.150 Kelvin.  Pressure   1.00000 Atm.
 Atom     1 has atomic number  1 and mass   1.00783

 Molecular mass:     2.01565 amu.
 Principal axes and moments of inertia in atomic units:
                           1         2         3
     Eigenvalues --     0.00000   0.95956   0.95956
           X            0.00000   1.00000   0.00000
           Y            0.00000   0.00000   1.00000
           Z            1.00000   0.00000   0.00000
 This molecule is a prolate symmetric top.
 Rotational symmetry number  2.
 Rotational temperature (Kelvin)     90.26383
 Rotational constant (GHZ):        1880.795206
 Zero-point vibrational energy      27765.9 (Joules/Mol)
                                    6.63620 (Kcal/Mol)
 Vibrational temperatures:   6678.92
          (Kelvin)

 Zero-point correction=                           0.010575 (Hartree/Particle)
 Thermal correction to Energy=                    0.012936
 Thermal correction to Enthalpy=                  0.013880
 Thermal correction to Gibbs Free Energy=        -0.000880
 Sum of electronic and zero-point Energies=             -1.116252
 Sum of electronic and thermal Energies=                -1.113892
 Sum of electronic and thermal Enthalpies=              -1.112948
 Sum of electronic and thermal Free Energies=           -1.127707

                     E (Thermal)             CV                S
                      KCal/Mol        Cal/Mol-Kelvin    Cal/Mol-Kelvin
 Total                    8.117              4.968             31.065
 Electronic               0.000              0.000              0.000
 Translational            0.889              2.981             28.080
 Rotational               0.592              1.987              2.984
 Vibrational              6.636              0.000              0.000

 Optimization completed.
    -- Stationary point found.
 Normal termination of Gaussian 09 at Fri Apr 15 17:23:33 2016.
