 Gaussian 09, Revision D.01,
 Gaussian 09:  ES64L-G09RevD.01 24-Apr-2013

 ------------------------------------------
 #P HF 6-31G* OPT FREQ # GFINPUT IOP(6/7=3)
 ------------------------------------------

 ---------------
 equilibrium job
 ---------------
 Symbolic Z-matrix:
 Charge =  0 Multiplicity = 1

 SCF Done:  E(RHF) =  -108.929833954     A.U. after    8 cycles
 SCF Done:  E(RHF) =  -108.943628985     A.U. after    7 cycles
 SCF Done:  E(RHF) =  -108.943949460     A.U. after    7 cycles
 Optimization completed.
    -- Stationary point found.
 Normal termination of Gaussian 09 at Fri Apr 15 17:24:33 2016.

 ----------------------------------------------------------------------
 #P Geom=AllCheck Guess=TCheck SCRF=Check Test GenChk RHF/6-31G(d) Freq
 ----------------------------------------------------------------------

 Structure from the checkpoint file:  "/scratch_l/henon/n2_7010/Gau-7021.chk"
 ---------------
 equilibrium job
 ---------------
 Charge =  0 Multiplicity = 1

                         Standard orientation:
 ---------------------------------------------------------------------
 Center     Atomic      Atomic             Coordinates (Angstroms)
 Number     Number       Type             X           Y           Z
 ---------------------------------------------------------------------
      1          7           0        0.000000    0.000000    0.539214
      2          7           0        0.000000    0.000000   -0.539214
 ---------------------------------------------------------------------

 SCF Done:  E(RHF) =  -108.943949460     A.U. after    1 cycles

 The electronic state is 1-SGG.
 Alpha  occ. eigenvalues --  -15.69066 -15.68683  -1.48815  -0.76997  -0.63159
 Alpha  occ. eigenvalues --   -0.62010  -0.62010
 Alpha virt. eigenvalues --    0.18073   0.18073   0.59133   0.76912   0.83105
 Alpha virt. eigenvalues --    0.83105   0.83858   1.01938   1.01938   1.09366
 Alpha virt. eigenvalues --    1.51662   1.71186   1.71186   1.87354   1.87354

 Mulliken charges:
               1
     1  N    0.000000
     2  N    0.000000
 Sum of Mulliken charges =   0.00000

 Dipole moment (field-independent basis, Debye):
    X=              0.0000    Y=              0.0000    Z=              0.0000  Tot=              0.0000
 Quadrupole moment (field-independent basis, Debye-Ang):
   XX=            -10.1826   YY=            -10.1826   ZZ=            -11.6707
   XY=              0.0000   XZ=              0.0000   YZ=              0.0000

  Exact polarizability:   5.856   0.000   5.856   0.000   0.000  13.381
 Approx polarizability:   5.709   0.000   5.709   0.000   0.000  15.006

                      1
                     SGG
 Frequencies --   2757.4902
 Red. masses --     14.0031
 Frc consts  --     62.7338
 IR Inten    --      0.0000
 Raman Activ --     18.3077

 - Thermochemistry -
 -------------------
 Temperature   298.150 Kelvin.  Pressure   1.00000 Atm.
 Atom     1 has atomic number  7 and mass  14.00307

 Molecular mass:    28.00615 amu.
 Principal axes and moments of inertia in atomic units:
                           1         2         3
     Eigenvalues --     0.00000  29.07863  29.07863
           X            0.00000   0.97615  -0.21712
           Y            0.00000   0.21712   0.97615
           Z            1.00000   0.00000   0.00000
 This molecule is a prolate symmetric top.
 Rotational symmetry number  2.
 Rotational temperature (Kelvin)      2.97861
 Rotational constant (GHZ):          62.064169
 Zero-point vibrational energy      16493.5 (Joules/Mol)
                                    3.94203 (Kcal/Mol)
 Vibrational temperatures:   3967.41
          (Kelvin)

 Zero-point correction=                           0.006282 (Hartree/Particle)
 Thermal correction to Energy=                    0.008643
 Thermal correction to Enthalpy=                  0.009587
 Thermal correction to Gibbs Free Energy=        -0.012121
 Sum of electronic and zero-point Energies=           -108.937667
 Sum of electronic and thermal Energies=              -108.935307
 Sum of electronic and thermal Enthalpies=            -108.934363
 Sum of electronic and thermal Free Energies=         -108.956070

                     E (Thermal)             CV                S
                      KCal/Mol        Cal/Mol-Kelvin    Cal/Mol-Kelvin
 Total                    5.423              4.969             45.687
 Electronic               0.000              0.000              0.000
 Translational            0.889              2.981             35.924
 Rotational               0.592              1.987              9.763
 Vibrational              3.942              0.001              0.000

 Optimization completed.
    -- Stationary point found.
 Normal termination of Gaussian 09 at Fri Apr 15 17:24:35 2016.
