 Gaussian 09, Revision D.01,
 Gaussian 09:  ES64L-G09RevD.01 24-Apr-2013

 ------------------------------------------
 #P HF 6-31G* OPT FREQ # GFINPUT IOP(6/7=3)
 ------------------------------------------

 -----------
 equilibrium
 -----------
 Symbolic Z-matrix:
 Charge =  0 Multiplicity = 1

 SCF Done:  E(RHF) =  -56.0985902578     A.U. after   11 cycles
 SCF Done:  E(RHF) =  -56.1494762785     A.U. after   11 cycles
 SCF Done:  E(RHF) =  -56.1817787581     A.U. after   11 cycles
 SCF Done:  E(RHF) =  -56.1842660778     A.U. after   10 cycles
 SCF Done:  E(RHF) =  -56.1843504118     A.U. after    9 cycles
 SCF Done:  E(RHF) =  -56.1843562552     A.U. after    8 cycles
 Optimization completed.
    -- Stationary point found.
 Normal termination of Gaussian 09 at Fri Apr 15 17:25:36 2016.

 ----------------------------------------------------------------------
 #P Geom=AllCheck Guess=TCheck SCRF=Check Test GenChk RHF/6-31G(d) Freq
 ----------------------------------------------------------------------

 Structure from the checkpoint file:  "/scratch_l/henon/nh3_7092/Gau-7103.chk"
 -----------
 equilibrium
 -----------
 Charge =  0 Multiplicity = 1

                         Standard orientation:
 ---------------------------------------------------------------------
 Center     Atomic      Atomic             Coordinates (Angstroms)
 Number     Number       Type             X           Y           Z
 ---------------------------------------------------------------------
      1          7           0        0.000000    0.111120    0.000000
      2          1           0        0.931913   -0.258773    0.000000
      3          1           0       -0.465957   -0.259534    0.806576
      4          1           0       -0.465957   -0.259534   -0.806576
 ---------------------------------------------------------------------

 SCF Done:  E(RHF) =  -56.1843562552     A.U. after    1 cycles

 The electronic state is 1-A'.
 Alpha  occ. eigenvalues --  -15.53440  -1.14024  -0.62769  -0.62754  -0.41985
 Alpha virt. eigenvalues --    0.22293   0.32487   0.32489   0.89635   0.89665
 Alpha virt. eigenvalues --    0.96995   1.21903   1.23215   1.23218   1.36441
 Alpha virt. eigenvalues --    1.96353   1.96363   2.28248   2.77007   2.77027

 Mulliken charges:
               1
     1  N   -0.995939
     2  H    0.332010
     3  H    0.331965
     4  H    0.331965
 Sum of Mulliken charges =   0.00000

 Dipole moment (field-independent basis, Debye):
    X=              0.0004    Y=             -1.9203    Z=              0.0000  Tot=              1.9203
 Quadrupole moment (field-independent basis, Debye-Ang):
   XX=             -6.0599   YY=             -8.8769   ZZ=             -6.0634
   XY=              0.0018   XZ=              0.0000   YZ=              0.0000

  Exact polarizability:   8.973   0.003   5.256   0.000   0.000   8.968
 Approx polarizability:   7.081   0.002   4.258   0.000   0.000   7.076

                      1                      2                      3
                     A'                     A"                     A'
 Frequencies --   1209.4220              1849.3855              1849.7865
 Red. masses --      1.1805                 1.0661                 1.0661
 Frc consts  --      1.0173                 2.1484                 2.1493
 IR Inten    --    218.1540                21.3410                21.3034
 Raman Activ --      8.8058                10.5740                10.5806

                      4                      5                      6
                     A'                     A'                     A"
 Frequencies --   3688.9334              3821.6128              3822.1963
 Red. masses --      1.0269                 1.0909                 1.0908
 Frc consts  --      8.2332                 9.3868                 9.3891
 IR Inten    --      0.3181                 0.4714                 0.4570
 Raman Activ --    116.1681                59.2232                59.2948

 - Thermochemistry -
 -------------------
 Temperature   298.150 Kelvin.  Pressure   1.00000 Atm.
 Atom     1 has atomic number  7 and mass  14.00307

 Molecular mass:    17.02655 amu.
 Principal axes and moments of inertia in atomic units:
                           1         2         3
     Eigenvalues --     5.90105   5.90668   9.37119
           X            1.00000   0.00000  -0.00074
           Y            0.00074   0.00000   1.00000
           Z            0.00000   1.00000   0.00000
 This molecule is an asymmetric top.
 Rotational symmetry number  1.
 Rotational temperatures (Kelvin)     14.67771    14.66371     9.24257
 Rotational constants (GHZ):         305.83413   305.54248   192.58409
 Zero-point vibrational energy      97144.8 (Joules/Mol)
                                   23.21816 (Kcal/Mol)
 Vibrational temperatures:   1740.09  2660.85  2661.43  5307.55  5498.44
          (Kelvin)           5499.28

 Zero-point correction=                           0.037000 (Hartree/Particle)
 Thermal correction to Energy=                    0.039851
 Thermal correction to Enthalpy=                  0.040796
 Thermal correction to Gibbs Free Energy=         0.017970
 Sum of electronic and zero-point Energies=            -56.147356
 Sum of electronic and thermal Energies=               -56.144505
 Sum of electronic and thermal Enthalpies=             -56.143561
 Sum of electronic and thermal Free Energies=          -56.166386

                     E (Thermal)             CV                S
                      KCal/Mol        Cal/Mol-Kelvin    Cal/Mol-Kelvin
 Total                   25.007              6.203             48.041
 Electronic               0.000              0.000              0.000
 Translational            0.889              2.981             34.441
 Rotational               0.889              2.981             13.555
 Vibrational             23.230              0.241              0.045

 Optimization completed.
    -- Stationary point found.
 Normal termination of Gaussian 09 at Fri Apr 15 17:25:38 2016.
