 Output coordinates in angstroms (scale by  1.889725989 to convert to a.u.)

  No.       Tag          Charge          X              Y              Z
 ---- ---------------- ---------- -------------- -------------- --------------
    1 C                    6.0000     0.00000000     0.00000000    -0.51869829
    2 N                    7.0000     0.00000000     0.00000000     0.67415671
    3 H                    1.0000     0.00000000     0.00000000    -1.60690729

         Total DFT energy =      -92.205053089589

                       DFT Final Molecular Orbital Analysis
                       ------------------------------------

 Vector    1  Occ=2.000000D+00  E=-1.417024D+01

 Vector    2  Occ=2.000000D+00  E=-1.004640D+01

 Vector    3  Occ=2.000000D+00  E=-8.734742D-01

 Vector    4  Occ=2.000000D+00  E=-5.608365D-01

 Vector    5  Occ=2.000000D+00  E=-3.042427D-01

 Vector    6  Occ=2.000000D+00  E=-2.983048D-01

 Vector    7  Occ=2.000000D+00  E=-2.983048D-01

 Vector    8  Occ=0.000000D+00  E= 1.119170D-01

 Vector    9  Occ=0.000000D+00  E= 1.119170D-01

 Vector   10  Occ=0.000000D+00  E= 2.817185D-01

 Vector   11  Occ=0.000000D+00  E= 8.870361D-01

     Multipole analysis of the density
     ---------------------------------

     L   x y z        total         alpha         beta         nuclear
     -   - - -        -----         -----         ----         -------
     0   0 0 0      0.000000     -7.000000     -7.000000     14.000000

     1   1 0 0      0.000000      0.000000      0.000000      0.000000
     1   0 1 0      0.000000      0.000000      0.000000      0.000000
     1   0 0 1     -0.909424     -0.454712     -0.454712      0.000000

     2   2 0 0     -7.763467     -3.881734     -3.881734      0.000000
     2   1 1 0      0.000000      0.000000      0.000000      0.000000
     2   1 0 1      0.000000      0.000000      0.000000      0.000000
     2   0 2 0     -7.763467     -3.881734     -3.881734      0.000000
     2   0 1 1      0.000000      0.000000      0.000000      0.000000

 Zero-Point correction to Energy  =   10.583 kcal/mol  (  0.016866 au)
 Thermal correction to Energy     =   12.164 kcal/mol  (  0.019385 au)
 Thermal correction to Enthalpy   =   12.757 kcal/mol  (  0.020329 au)
 Total Entropy                    =   48.147 cal/mol-K
   - Translational                =   35.800 cal/mol-K (mol. weight =  27.0109)
   - Rotational                   =   11.922 cal/mol-K (symmetry #  =        1)
   - Vibrational                  =    0.424 cal/mol-K
   - Translational                  =    2.979 cal/mol-K
   - Rotational                     =    1.986 cal/mol-K
   - Vibrational                    =    1.325 cal/mol-K
 P.Frequency        0.00        0.00        0.00        0.00        0.00      794.49
 P.Frequency      794.49     2203.12     3614.66

 Normal Eigenvalue ||           Projected Infra Red Intensities
  Mode   [cm**-1]  || [atomic units] [(debye/angs)**2] [(KM/mol)] [arbitrary]
 ------ ---------- || -------------- ----------------- ---------- -----------
    1        0.000 ||    0.010377           0.239        10.116       4.232
    2        0.000 ||    0.001281           0.030         1.249       0.523
    3        0.000 ||    0.000000           0.000         0.000       0.000
    4        0.000 ||    0.008762           0.202         8.542       3.574
    5        0.000 ||    0.017858           0.412        17.409       7.283
    6      794.487 ||    0.029235           0.674        28.499      11.923
    7      794.487 ||    0.029235           0.674        28.499      11.923
    8     2203.121 ||    0.000421           0.010         0.410       0.172
    9     3614.660 ||    0.123499           2.849       120.393      50.370
 ----------------------------------------------------------------------------

 Total times  cpu:        7.6s     wall:        7.9s
