 Gaussian 09, Revision A.02,
 Gaussian 09:  AM64L-G09RevA.02 11-Jun-2009

 --------------------------------------------------
 #P M06 6-311G** FREQ # GFINPUT IOP(6/7=3) POP=FULL
 --------------------------------------------------

 --------
 reactif2
 --------
 Symbolic Z-matrix:
 Charge =  0 Multiplicity = 2

                         Standard orientation:
 ---------------------------------------------------------------------
 Center     Atomic      Atomic             Coordinates (Angstroms)
 Number     Number       Type             X           Y           Z
 ---------------------------------------------------------------------
      1          1           0        0.000000    0.000000    0.000000
 ---------------------------------------------------------------------

 SCF Done:  E(UM06) = -0.499876612271     A.U. after    7 cycles

 The electronic state is 2-A1G.
 Alpha  occ. eigenvalues --   -0.32534
 Alpha virt. eigenvalues --    0.21874   1.27255   1.27255   1.27255   2.13517
  Beta virt. eigenvalues --   -4.07243  -2.66904  -2.66904  -2.66904  -1.98288
  Beta virt. eigenvalues --   -0.45170

 Mulliken atomic charges:
              1
     1  H   -0.000000
 Sum of Mulliken atomic charges =  -0.00000

 Dipole moment (field-independent basis, Debye):
    X=              0.0000    Y=              0.0000    Z=              0.0000  Tot=              0.0000
 Quadrupole moment (field-independent basis, Debye-Ang):
   XX=             -1.3858   YY=             -1.3858   ZZ=             -1.3858
   XY=              0.0000   XZ=              0.0000   YZ=              0.0000

  Exact polarizability:   0.558   0.000   0.558   0.000   0.000   0.558
 Approx polarizability:   0.527   0.000   0.527   0.000   0.000   0.527

 - Thermochemistry -
 -------------------
 Temperature   298.150 Kelvin.  Pressure   1.00000 Atm.
 Atom     1 has atomic number  1 and mass   1.00783
 Molecular mass:     1.00783 amu.
 Zero-point vibrational energy          0.0 (Joules/Mol)
                                    0.00000 (Kcal/Mol)
 Vibrational temperatures:
          (Kelvin)

 Zero-point correction=                           0.000000 (Hartree/Particle)
 Thermal correction to Energy=                    0.001416
 Thermal correction to Enthalpy=                  0.002360
 Thermal correction to Gibbs Free Energy=        -0.010654
 Sum of electronic and zero-point Energies=             -0.499877
 Sum of electronic and thermal Energies=                -0.498460
 Sum of electronic and thermal Enthalpies=              -0.497516
 Sum of electronic and thermal Free Energies=           -0.510531

                     E (Thermal)             CV                S
                      KCal/Mol        Cal/Mol-Kelvin    Cal/Mol-Kelvin
 Total                    0.889              2.981             27.392
 Electronic               0.000              0.000              1.377
 Translational            0.889              2.981             26.014
 Rotational               0.000              0.000              0.000
 Vibrational              0.000              0.000              0.000

 Optimization completed.
    -- Stationary point found.
 Normal termination of Gaussian 09 at Fri Apr 25 16:21:15 2014.
