 Gaussian 09, Revision A.02,
 Gaussian 09:  AM64L-G09RevA.02 11-Jun-2009

 --------------------------------------------------
 #P M06 6-311G** FREQ # GFINPUT IOP(6/7=3) POP=FULL
 --------------------------------------------------

 ----------------------------------
 reverse IRC, from TS reverse1 freq
 ----------------------------------
 Symbolic Z-matrix:
 Charge =  0 Multiplicity = 2

                         Standard orientation:
 ---------------------------------------------------------------------
 Center     Atomic      Atomic             Coordinates (Angstroms)
 Number     Number       Type             X           Y           Z
 ---------------------------------------------------------------------
      1          7           0        0.195815   -0.123112    0.000797
      2          7           0        1.315097    0.094529    0.021288
      3          7           0       -1.047793   -0.040196   -0.117184
      4          1           0       -1.512535   -0.755188    0.436583
      5          1           0       -1.729299    1.236640    0.229113
 ---------------------------------------------------------------------

 SCF Done:  E(UM06) =  -165.228082404     A.U. after   20 cycles

 The electronic state is 2-A.
 Alpha  occ. eigenvalues --  -14.54331 -14.47383 -14.45805  -1.16054  -1.00050
 Alpha  occ. eigenvalues --   -0.66066  -0.56278  -0.53056  -0.47395  -0.41432
 Alpha  occ. eigenvalues --   -0.32438  -0.18338
 Alpha virt. eigenvalues --   -0.03086   0.01284   0.04123   0.21702   0.26509
 Alpha virt. eigenvalues --    0.35790   0.42194   0.46496   0.50575   0.54158
 Alpha virt. eigenvalues --    0.60035   0.64962   0.68234   0.69099   0.73736

  Beta  occ. eigenvalues --  -14.54172 -14.47276 -14.45121  -1.14829  -0.98914
  Beta  occ. eigenvalues --   -0.65721  -0.54116  -0.52517  -0.45387  -0.38618
  Beta  occ. eigenvalues --   -0.31710
  Beta virt. eigenvalues --   -0.06319  -0.01291   0.02687   0.05821   0.22247
  Beta virt. eigenvalues --    0.33169   0.35908   0.42151   0.46451   0.50565
  Beta virt. eigenvalues --    0.55014   0.60206   0.65545   0.68879   0.69227

 Mulliken atomic charges:
              1
     1  N    0.168571
     2  N   -0.140106
     3  N   -0.302255
     4  H    0.272216
     5  H    0.001574
 Sum of Mulliken atomic charges =  -0.00000

 Dipole moment (field-independent basis, Debye):
    X=             -1.5002    Y=             -1.3192    Z=              0.9144  Tot=              2.1971
 Quadrupole moment (field-independent basis, Debye-Ang):
   XX=            -19.9760   YY=            -17.4809   ZZ=            -17.8432
   XY=              2.0202   XZ=             -1.5717   YZ=             -0.9262

  Exact polarizability:  56.069 -12.856  25.995  -3.014   1.675  11.728
 Approx polarizability: 113.850 -20.789  34.739  -2.664   2.090  15.247

 ******    1 imaginary frequencies (negative Signs) ******

                     1                      2                      3
                     A                      A                      A
 Frequencies -- -1541.4891               449.3791               506.2680
 Red. masses --     1.2226                 3.8996                 2.0245
 Frc consts  --     1.7117                 0.4640                 0.3057
 IR Inten    --  1457.1746                 2.7186                35.5877

                     4                      5                      6
                     A                      A                      A
 Frequencies --   676.7769               882.6439              1240.7601
 Red. masses --     2.0046                 1.3162                 3.5724
 Frc consts  --     0.5410                 0.6042                 3.2403
 IR Inten    --    38.8547                65.0797                22.5350

                     7                      8                      9
                     A                      A                      A
 Frequencies --  1314.9129              2214.5212              3542.8799
 Red. masses --     1.1972                11.3688                 1.0766
 Frc consts  --     1.2195                32.8491                 7.9617
 IR Inten    --    47.5250               360.4309                61.8696

 - Thermochemistry -
 -------------------
 Temperature   298.150 Kelvin.  Pressure   1.00000 Atm.
 Atom     1 has atomic number  7 and mass  14.00307

 Molecular mass:    44.02487 amu.
 Principal axes and moments of inertia in atomic units:
                           1         2         3
     Eigenvalues --    10.18881 163.09425 170.37784
           X            0.99941  -0.02409  -0.02432
           Y            0.02393   0.99969  -0.00675
           Z            0.02448   0.00617   0.99968
 This molecule is an asymmetric top.
 Rotational symmetry number  1.
 Rotational temperatures (Kelvin)      8.50088     0.53107     0.50836
 Rotational constants (GHZ):         177.12971    11.06563    10.59258
    1 imaginary frequencies ignored.
 Zero-point vibrational energy      64766.7 (Joules/Mol)
                                   15.47961 (Kcal/Mol)
 Warning -- explicit consideration of   2 degrees of freedom as
           vibrations may cause significant error
 Vibrational temperatures:    646.56   728.41   973.73  1269.93  1785.17
          (Kelvin)           1891.86  3186.20  5097.41

 Zero-point correction=                           0.024668 (Hartree/Particle)
 Thermal correction to Energy=                    0.028190
 Thermal correction to Enthalpy=                  0.029134
 Thermal correction to Gibbs Free Energy=         0.000193
 Sum of electronic and zero-point Energies=           -165.203414
 Sum of electronic and thermal Energies=              -165.199893
 Sum of electronic and thermal Enthalpies=            -165.198949
 Sum of electronic and thermal Free Energies=         -165.227890

                     E (Thermal)             CV                S
                      KCal/Mol        Cal/Mol-Kelvin    Cal/Mol-Kelvin
 Total                   17.689             10.284             60.912
 Electronic               0.000              0.000              1.377
 Translational            0.889              2.981             37.273
 Rotational               0.889              2.981             20.276
 Vibrational             15.912              4.323              1.986
 Vibration     1          0.808              1.362              0.798
 Vibration     2          0.861              1.236              0.643

 Normal termination of Gaussian 09 at Fri Apr 25 17:09:51 2014.
