 Gaussian 09, Revision A.02,
 Gaussian 09:  AM64L-G09RevA.02 11-Jun-2009

 --------------------------------------------------
 #P M06 6-311G** FREQ # GFINPUT IOP(6/7=3) POP=FULL
 --------------------------------------------------

 ----------------------------------
 reverse IRC, from TS reverse1 freq
 ----------------------------------
 Symbolic Z-matrix:
 Charge =  0 Multiplicity = 2

                         Standard orientation:
 ---------------------------------------------------------------------
 Center     Atomic      Atomic             Coordinates (Angstroms)
 Number     Number       Type             X           Y           Z
 ---------------------------------------------------------------------
      1          7           0        0.194717   -0.175080   -0.014109
      2          7           0        1.329276    0.093636    0.022048
      3          7           0       -1.087821    0.051847   -0.087129
      4          1           0       -1.572960   -0.742439    0.311173
      5          1           0       -1.480242    0.949618    0.243156
 ---------------------------------------------------------------------

 SCF Done:  E(UM06) =  -165.275012409     A.U. after   19 cycles

 The electronic state is 2-A.
 Alpha  occ. eigenvalues --  -14.48303 -14.46671 -14.41772  -1.11086  -0.97053
 Alpha  occ. eigenvalues --   -0.68084  -0.58618  -0.48616  -0.45556  -0.41617
 Alpha  occ. eigenvalues --   -0.31671  -0.15568
 Alpha virt. eigenvalues --    0.00484   0.02648   0.07400   0.19677   0.33660
 Alpha virt. eigenvalues --    0.35466   0.44246   0.49173   0.52035   0.58198
 Alpha virt. eigenvalues --    0.61044   0.66139   0.69652   0.70484   0.73786

  Beta  occ. eigenvalues --  -14.47758 -14.46543 -14.40588  -1.09164  -0.95071
  Beta  occ. eigenvalues --   -0.66664  -0.57560  -0.47760  -0.41761  -0.37588
  Beta  occ. eigenvalues --   -0.30903
  Beta virt. eigenvalues --   -0.02125   0.01758   0.03403   0.08140   0.20681
  Beta virt. eigenvalues --    0.33895   0.35473   0.44519   0.49332   0.52110
  Beta virt. eigenvalues --    0.59126   0.61272   0.66408   0.70431   0.71808

 Mulliken atomic charges:
              1
     1  N    0.007636
     2  N   -0.181466
     3  N   -0.291623
     4  H    0.266610
     5  H    0.198842
 Sum of Mulliken atomic charges =  -0.00000

 Dipole moment (field-independent basis, Debye):
    X=             -3.5303    Y=              0.0966    Z=              1.0267  Tot=              3.6778
 Quadrupole moment (field-independent basis, Debye-Ang):
   XX=            -17.7477   YY=            -16.0036   ZZ=            -17.6126
   XY=              0.0674   XZ=             -1.8580   YZ=             -0.1632

  Exact polarizability:  39.612  -2.239  17.541  -0.979   0.648  11.409
 Approx polarizability:  66.510  -1.557  22.496  -0.077   0.901  14.857

 ******    1 imaginary frequencies (negative Signs) ******

                     1                      2                      3
                     A                      A                      A
 Frequencies --  -129.2901               403.8320               671.7438
 Red. masses --     5.5645                 2.6904                 1.5062
 Frc consts  --     0.0548                 0.2585                 0.4004
 IR Inten    --    27.7164                15.7711               206.2418

                     4                      5                      6
                     A                      A                      A
 Frequencies --  1048.3868              1260.9648              1632.2290
 Red. masses --     3.2950                 1.3652                 1.0835
 Frc consts  --     2.1338                 1.2790                 1.7008
 IR Inten    --    21.6178                18.4181                21.0549

                     7                      8                      9
                     A                      A                      A
 Frequencies --  2027.1362              3201.1734              3575.6713
 Red. masses --    10.3216                 1.0605                 1.0802
 Frc consts  --    24.9898                 6.4029                 8.1371
 IR Inten    --   108.6906                97.8650                52.7188

 - Thermochemistry -
 -------------------
 Temperature   298.150 Kelvin.  Pressure   1.00000 Atm.
 Atom     1 has atomic number  7 and mass  14.00307

 Molecular mass:    44.02487 amu.
 Principal axes and moments of inertia in atomic units:
                           1         2         3
     Eigenvalues --     8.21700 166.43076 172.86704
           X            0.99980  -0.00557  -0.01913
           Y            0.00565   0.99998   0.00401
           Z            0.01911  -0.00412   0.99981
 This molecule is an asymmetric top.
 Rotational symmetry number  1.
 Rotational temperatures (Kelvin)     10.54081     0.52042     0.50104
 Rotational constants (GHZ):         219.63509    10.84380    10.44005
    1 imaginary frequencies ignored.
 Zero-point vibrational energy      82668.8 (Joules/Mol)
                                   19.75831 (Kcal/Mol)
 Warning -- explicit consideration of   1 degrees of freedom as
           vibrations may cause significant error
 Vibrational temperatures:    581.02   966.49  1508.39  1814.24  2348.41
          (Kelvin)           2916.59  4605.77  5144.59

 Zero-point correction=                           0.031487 (Hartree/Particle)
 Thermal correction to Energy=                    0.034797
 Thermal correction to Enthalpy=                  0.035741
 Thermal correction to Gibbs Free Energy=         0.007160
 Sum of electronic and zero-point Energies=           -165.243526
 Sum of electronic and thermal Energies=              -165.240216
 Sum of electronic and thermal Enthalpies=            -165.239272
 Sum of electronic and thermal Free Energies=         -165.267853

                     E (Thermal)             CV                S
                      KCal/Mol        Cal/Mol-Kelvin    Cal/Mol-Kelvin
 Total                   21.835              8.861             60.154
 Electronic               0.000              0.000              1.377
 Translational            0.889              2.981             37.273
 Rotational               0.889              2.981             20.097
 Vibrational             20.058              2.899              1.407
 Vibration     1          0.769              1.462              0.949

 Normal termination of Gaussian 09 at Fri Apr 25 17:10:01 2014.
