 Gaussian 09, Revision A.02,
 Gaussian 09:  AM64L-G09RevA.02 11-Jun-2009

 --------------------------------------------------
 #P M06 6-311G** FREQ # GFINPUT IOP(6/7=3) POP=FULL
 --------------------------------------------------

 ----------------------------------
 reverse IRC, from TS reverse1 freq
 ----------------------------------
 Symbolic Z-matrix:
 Charge =  0 Multiplicity = 2

                         Standard orientation:
 ---------------------------------------------------------------------
 Center     Atomic      Atomic             Coordinates (Angstroms)
 Number     Number       Type             X           Y           Z
 ---------------------------------------------------------------------
      1          7           0        0.205324   -0.223289   -0.009278
      2          7           0        1.324835    0.118202    0.018484
      3          7           0       -1.094953    0.067053   -0.083484
      4          1           0       -1.608051   -0.716943    0.295162
      5          1           0       -1.438389    0.983182    0.224783
 ---------------------------------------------------------------------

 SCF Done:  E(UM06) =  -165.284187657     A.U. after   19 cycles

 The electronic state is 2-A.
 Alpha  occ. eigenvalues --  -14.48599 -14.46081 -14.42221  -1.10453  -0.96171
 Alpha  occ. eigenvalues --   -0.67467  -0.58174  -0.48015  -0.46185  -0.41582
 Alpha  occ. eigenvalues --   -0.31567  -0.17093
 Alpha virt. eigenvalues --    0.00216   0.02801   0.07401   0.18825   0.33721
 Alpha virt. eigenvalues --    0.34747   0.45096   0.49427   0.52313   0.58258
 Alpha virt. eigenvalues --    0.60998   0.65513   0.68599   0.70224   0.73023

  Beta  occ. eigenvalues --  -14.48064 -14.45871 -14.41029  -1.08487  -0.94200
  Beta  occ. eigenvalues --   -0.65869  -0.57232  -0.47078  -0.42327  -0.37686
  Beta  occ. eigenvalues --   -0.30734
  Beta virt. eigenvalues --   -0.03367   0.01609   0.03434   0.07912   0.19896
  Beta virt. eigenvalues --    0.33902   0.34818   0.45426   0.49775   0.52459
  Beta virt. eigenvalues --    0.59292   0.61287   0.65886   0.69353   0.71497

 Mulliken atomic charges:
              1
     1  N    0.000069
     2  N   -0.167052
     3  N   -0.307567
     4  H    0.263512
     5  H    0.211037
 Sum of Mulliken atomic charges =   0.00000

 Dipole moment (field-independent basis, Debye):
    X=             -3.4256    Y=              0.2134    Z=              1.0010  Tot=              3.5752
 Quadrupole moment (field-independent basis, Debye-Ang):
   XX=            -17.5009   YY=            -15.9879   ZZ=            -17.7198
   XY=             -0.0700   XZ=             -1.8009   YZ=             -0.0840

  Exact polarizability:  38.300  -0.938  17.628  -0.744   0.434  11.411
 Approx polarizability:  64.271   0.935  22.973   0.172   0.665  14.842

                     1                      2                      3
                     A                      A                      A
 Frequencies --   344.5007               436.0363               562.3536
 Red. masses --     3.8158                 2.2753                 1.6153
 Frc consts  --     0.2668                 0.2549                 0.3010
 IR Inten    --    47.3958                10.6021               207.5603

                     4                      5                      6
                     A                      A                      A
 Frequencies --   983.0113              1240.7048              1607.5817
 Red. masses --     3.8100                 1.3097                 1.0890
 Frc consts  --     2.1692                 1.1878                 1.6581
 IR Inten    --    32.3446                17.0399                31.4105

                     7                      8                      9
                     A                      A                      A
 Frequencies --  1929.9494              3328.1159              3619.7740
 Red. masses --    10.0274                 1.0564                 1.0863
 Frc consts  --    22.0055                 6.8938                 8.3860
 IR Inten    --   103.2679                31.4430                56.7740

 - Thermochemistry -
 -------------------
 Temperature   298.150 Kelvin.  Pressure   1.00000 Atm.
 Atom     1 has atomic number  7 and mass  14.00307

 Molecular mass:    44.02487 amu.
 Principal axes and moments of inertia in atomic units:
                           1         2         3
     Eigenvalues --     9.52447 166.69129 174.63514
           X            0.99982  -0.00616  -0.01795
           Y            0.00630   0.99995   0.00781
           Z            0.01790  -0.00793   0.99981
 This molecule is an asymmetric top.
 Rotational symmetry number  1.
 Rotational temperatures (Kelvin)      9.09382     0.51961     0.49597
 Rotational constants (GHZ):         189.48475    10.82685    10.33435
 Zero-point vibrational energy      84049.8 (Joules/Mol)
                                   20.08838 (Kcal/Mol)
 Warning -- explicit consideration of   3 degrees of freedom as
           vibrations may cause significant error
 Vibrational temperatures:    495.66   627.36   809.10  1414.33  1785.10
          (Kelvin)           2312.95  2776.76  4788.41  5208.04

 Zero-point correction=                           0.032013 (Hartree/Particle)
 Thermal correction to Energy=                    0.035728
 Thermal correction to Enthalpy=                  0.036672
 Thermal correction to Gibbs Free Energy=         0.007405
 Sum of electronic and zero-point Energies=           -165.252175
 Sum of electronic and thermal Energies=              -165.248459
 Sum of electronic and thermal Enthalpies=            -165.247515
 Sum of electronic and thermal Free Energies=         -165.276783

                     E (Thermal)             CV                S
                      KCal/Mol        Cal/Mol-Kelvin    Cal/Mol-Kelvin
 Total                   22.420             10.695             61.599
 Electronic               0.000              0.000              1.377
 Translational            0.889              2.981             37.273
 Rotational               0.889              2.981             20.255
 Vibrational             20.642              4.734              2.694
 Vibration     1          0.723              1.586              1.191
 Vibration     2          0.796              1.392              0.839
 Vibration     3          0.918              1.113              0.519

 Normal termination of Gaussian 09 at Fri Apr 25 17:10:12 2014.
