 Gaussian 09, Revision A.02,
 Gaussian 09:  AM64L-G09RevA.02 11-Jun-2009

 ----------------------------------------------------------------------
 #P M06 6-311G** IRC=(forward, calcfc, stepsize=20, maxcyc=10) # GFINPU
 T IOP(6/7=3) POP=FULL
 ----------------------------------------------------------------------

 --------------------
 forward IRC, from TS
 --------------------
 Symbolic Z-matrix:
 Charge =  0 Multiplicity = 2

 SCF Done:  E(UM06) =  -165.223018668     A.U. after   18 cycles
 SCF Done:  E(UM06) =  -165.224015200     A.U. after   19 cycles
 SCF Done:  E(UM06) =  -165.228082736     A.U. after   19 cycles
 SCF Done:  E(UM06) =  -165.236231758     A.U. after   19 cycles
 SCF Done:  E(UM06) =  -165.247914478     A.U. after   20 cycles
 SCF Done:  E(UM06) =  -165.260836847     A.U. after   20 cycles
 SCF Done:  E(UM06) =  -165.269653248     A.U. after   20 cycles
 SCF Done:  E(UM06) =  -165.270014925     A.U. after   16 cycles
 SCF Done:  E(UM06) =  -165.273502631     A.U. after   19 cycles
 SCF Done:  E(UM06) =  -165.275291506     A.U. after   17 cycles
 SCF Done:  E(UM06) =  -165.275145653     A.U. after   14 cycles
 SCF Done:  E(UM06) =  -165.279552989     A.U. after   17 cycles
 SCF Done:  E(UM06) =  -165.279774185     A.U. after   15 cycles
 SCF Done:  E(UM06) =  -165.284133327     A.U. after   17 cycles
 SCF Done:  E(UM06) =  -165.284184823     A.U. after   14 cycles
 SCF Done:  E(UM06) =  -165.288195263     A.U. after   17 cycles
 SCF Done:  E(UM06) =  -165.288219525     A.U. after   13 cycles

                          Input orientation:
 ---------------------------------------------------------------------
 Center     Atomic      Atomic             Coordinates (Angstroms)
 Number     Number       Type             X           Y           Z
 ---------------------------------------------------------------------
      1          7           0       -0.221651   -0.145869    0.087826
      2          7           0       -0.174648    0.021760    1.245956
      3          7           0        0.352830    0.064993   -1.112697
      4          1           0       -0.359903   -0.052188   -1.818712
      5          1           0        0.967205    0.872982   -1.252081
 ---------------------------------------------------------------------

 Alpha  occ. eigenvalues --  -14.48734 -14.45809 -14.42426  -1.10320  -0.95773
 Alpha  occ. eigenvalues --   -0.67153  -0.57921  -0.47844  -0.46476  -0.41595
 Alpha  occ. eigenvalues --   -0.31535  -0.17834
 Alpha virt. eigenvalues --    0.00051   0.02930   0.07419   0.18587   0.33720
 Alpha virt. eigenvalues --    0.34522   0.45210   0.49730   0.52429   0.58234
 Alpha virt. eigenvalues --    0.60965   0.65069   0.68019   0.70096   0.72512

  Beta  occ. eigenvalues --  -14.48210 -14.45563 -14.41232  -1.08338  -0.93802
  Beta  occ. eigenvalues --   -0.65480  -0.57003  -0.46860  -0.42617  -0.37773
  Beta  occ. eigenvalues --   -0.30668
  Beta virt. eigenvalues --   -0.04007   0.01471   0.03528   0.07855   0.19700
  Beta virt. eigenvalues --    0.33916   0.34572   0.45564   0.50172   0.52607
  Beta virt. eigenvalues --    0.59317   0.61275   0.65502   0.68729   0.71325

 Mulliken atomic charges:
              1
     1  N   -0.001634
     2  N   -0.160167
     3  N   -0.314667
     4  H    0.261293
     5  H    0.215175
 Sum of Mulliken atomic charges =  -0.00000

 Dipole moment (field-independent basis, Debye):
    X=              0.3297    Y=              1.1754    Z=             -3.2894  Tot=              3.5086
 Quadrupole moment (field-independent basis, Debye-Ang):
   XX=            -17.0164   YY=            -16.9543   ZZ=            -16.7102
   XY=              1.0834   XZ=              1.0571   YZ=             -1.4376

  Exact polarizability:   0.000   0.000   0.000   0.000   0.000   0.000
 Approx polarizability:  21.105   4.358  18.352  -7.437  -0.714  61.792

 Normal termination of Gaussian 09 at Fri Apr 25 16:39:37 2014.
