 Gaussian 03, Revision C.02,
 Gaussian 03:  AM64L-G03RevC.02 12-Jun-2004

 -------------------------------------------------
 #P MP2 6-31G** iop(6/7=3) gfinput pop=full # freq
 -------------------------------------------------

 ---
 job
 ---
 Symbolic Z-matrix:
 Charge =  0 Multiplicity = 2

                         Standard orientation:
 ---------------------------------------------------------------------
 Center     Atomic     Atomic              Coordinates (Angstroms)
 Number     Number      Type              X           Y           Z
 ---------------------------------------------------------------------
    1          6             0        0.108461   -0.109264   -0.196885
    2          1             0       -0.521790   -0.961932   -0.417259
    3          1             0        1.099469   -0.374655    0.149951
    4          1             0        0.102945    0.650917   -0.968194
    5          1             0       -0.450690    0.454032    0.818112
    6          1             0       -0.880698    0.887224    1.598698
 ---------------------------------------------------------------------

 SCF Done:  E(UHF) =  -40.6633480397     A.U. after   14 cycles
 E2 =    -0.1673381386D+00 EUMP2 =    -0.40830686178306D+02

 The electronic state is 2-A.
 Alpha  occ. eigenvalues --  -11.23845  -0.96827  -0.62651  -0.57271  -0.57271
 Alpha  occ. eigenvalues --   -0.36543
 Alpha virt. eigenvalues --    0.25724   0.31708   0.31708   0.36118   0.71351
 Alpha virt. eigenvalues --    0.71351   0.74839   0.91290   1.13681   1.13681
 Alpha virt. eigenvalues --    1.17437   1.18923   1.42041   1.61381   1.61381

  Beta  occ. eigenvalues --  -11.22237  -0.91711  -0.56317  -0.56317  -0.52700
  Beta virt. eigenvalues --    0.10387   0.26735   0.32535   0.32535   0.41010
  Beta virt. eigenvalues --    0.71647   0.71647   0.82462   0.99927   1.14695
  Beta virt. eigenvalues --    1.14695   1.18914   1.21647   1.44565   1.64317

 Mulliken atomic charges:
              1
     1  C   -0.392892
     2  H    0.137278
     3  H    0.137278
     4  H    0.137278
     5  H    0.005239
     6  H   -0.024182
 Sum of Mulliken charges=   0.00000

 Dipole moment (field-independent basis, Debye):
    X=     0.3420    Y=    -0.3446    Z=    -0.6209  Tot=     0.7882
 Quadrupole moment (field-independent basis, Debye-Ang):
   XX=    -9.8094   YY=    -9.8151   ZZ=   -10.6858
   XY=     0.3847   XZ=     0.6932   YZ=    -0.6983

  Exact polarizability:  15.530  -2.944  15.574  -5.304   5.344  22.237
 Approx polarizability:  11.646  -1.453  11.667  -2.619   2.638  14.957

 ******    1 imaginary frequencies (negative Signs) ******

                     1                      2                      3
                     A                      A                      A
 Frequencies -- -1969.1250               450.7630               450.7636
 Red. masses --     1.0557                 1.0343                 1.0343
 Frc consts  --     2.4118                 0.1238                 0.1238
 IR Inten    --    98.1485                 0.0257                 0.0257

                     4                      5                      6
                     A                      A                      A
 Frequencies --  1246.8886              1352.5269              1352.5270
 Red. masses --     1.0386                 1.1007                 1.1007
 Frc consts  --     0.9514                 1.1863                 1.1863
 IR Inten    --     2.1547                 3.4000                 3.4001

                     7                      8                      9
                     A                      A                      A
 Frequencies --  1394.3540              1521.8283              1521.8288
 Red. masses --     1.2346                 1.0427                 1.0427
 Frc consts  --     1.4143                 1.4228                 1.4228
 IR Inten    --     0.7259                 1.8401                 1.8402

                    10                     11                     12
                     A                      A                      A
 Frequencies --  3173.3135              3328.0834              3328.0878
 Red. masses --     1.0203                 1.1107                 1.1107
 Frc consts  --     6.0532                 7.2486                 7.2486
 IR Inten    --     2.7422                10.9618                10.9618

 - Thermochemistry -
 -------------------
 Temperature   298.150 Kelvin.  Pressure   1.00000 Atm.
 Atom  1 has atomic number  6 and mass  12.00000

 Molecular mass:    17.03913 amu.
 Principal axes and moments of inertia in atomic units:
                           1         2         3
     EIGENVALUES --    11.85911  29.79824  29.79824
           X           -0.43396   0.00000   0.90093
           Y            0.43718   0.87438   0.21058
           Z            0.78775  -0.48525   0.37945
 This molecule is an asymmetric top.
 Rotational symmetry number  1.
 Rotational temperatures (Kelvin)      7.30357     2.90668     2.90668
 Rotational constants (GHZ):         152.18189    60.56537    60.56535
    1 imaginary frequencies ignored.
 Zero-point vibrational energy     114368.8 (Joules/Mol)
                                   27.33479 (Kcal/Mol)
 Warning -- explicit consideration of   2 degrees of freedom as
           vibrations may cause significant error
 Vibrational temperatures:    648.55   648.55  1793.99  1945.98  1945.98
          (Kelvin)           2006.16  2189.57  2189.57  4565.68  4788.36
                             4788.37

 Zero-point correction=                           0.043561 (Hartree/Particle)
 Thermal correction to Energy=                    0.046968
 Thermal correction to Enthalpy=                  0.047912
 Thermal correction to Gibbs Free Energy=         0.022003
 Sum of electronic and zero-point Energies=            -40.787125
 Sum of electronic and thermal Energies=               -40.783718
 Sum of electronic and thermal Enthalpies=             -40.782774
 Sum of electronic and thermal Free Energies=          -40.808683

                     E (Thermal)             CV                S
                      KCal/Mol        Cal/Mol-Kelvin    Cal/Mol-Kelvin
 Total                   29.473              9.352             54.531
 Electronic               0.000              0.000              1.377
 Translational            0.889              2.981             34.443
 Rotational               0.889              2.981             17.006
 Vibrational             27.696              3.390              1.705
 Vibration  1             0.810              1.359              0.793
 Vibration  2             0.810              1.359              0.793

 Normal termination of Gaussian 03 at Wed Apr 10 03:14:08 2013.
