 Gaussian 03, Revision C.02,
 Gaussian 03:  AM64L-G03RevC.02 12-Jun-2004

 -------------------------------------------------
 #P MP2 6-31G** iop(6/7=3) gfinput pop=full # freq
 -------------------------------------------------

 ---
 job
 ---
 Symbolic Z-matrix:
 Charge =  0 Multiplicity = 2

                         Standard orientation:
 ---------------------------------------------------------------------
 Center     Atomic     Atomic              Coordinates (Angstroms)
 Number     Number      Type              X           Y           Z
 ---------------------------------------------------------------------
    1          6             0        0.015764    0.059034   -0.236352
    2          1             0       -0.997220    0.304768   -0.532662
    3          1             0        0.405474   -0.827863   -0.722007
    4          1             0        0.693446    0.903970   -0.270252
    5          1             0       -0.064093   -0.240033    0.961039
    6          1             0       -0.132188   -0.495045    1.981995
 ---------------------------------------------------------------------

 SCF Done:  E(UHF) =  -40.6665691150     A.U. after   14 cycles
 E2 =    -0.1678743205D+00 EUMP2 =    -0.40834443435442D+02

 The electronic state is 2-A.
 Alpha  occ. eigenvalues --  -11.23349  -0.96567  -0.62529  -0.56855  -0.56855
 Alpha  occ. eigenvalues --   -0.37608
 Alpha virt. eigenvalues --    0.25928   0.31857   0.31857   0.36888   0.71562
 Alpha virt. eigenvalues --    0.71562   0.74810   0.91639   1.13801   1.13801
 Alpha virt. eigenvalues --    1.17670   1.18394   1.42508   1.61246   1.61246

  Beta  occ. eigenvalues --  -11.22020  -0.92364  -0.56093  -0.56093  -0.52599
  Beta virt. eigenvalues --    0.10197   0.26788   0.32526   0.32526   0.41497
  Beta virt. eigenvalues --    0.71776   0.71776   0.80995   1.02369   1.14672
  Beta virt. eigenvalues --    1.14672   1.18678   1.21148   1.44880   1.63571

 Mulliken atomic charges:
              1
     1  C   -0.402286
     2  H    0.134312
     3  H    0.134312
     4  H    0.134312
     5  H    0.021666
     6  H   -0.022315
 Sum of Mulliken charges=   0.00000

 Dipole moment (field-independent basis, Debye):
    X=     0.0430    Y=     0.1610    Z=    -0.6445  Tot=     0.6657
 Quadrupole moment (field-independent basis, Debye-Ang):
   XX=    -9.4611   YY=    -9.5649   ZZ=   -11.2441
   XY=    -0.0298   XZ=     0.1194   YZ=     0.4473

  Exact polarizability:  12.699   0.221  13.466  -0.883  -3.307  25.879
 Approx polarizability:  10.283   0.109  10.662  -0.436  -1.633  16.791

 ******    1 imaginary frequencies (negative Signs) ******

                     1                      2                      3
                     A                      A                      A
 Frequencies -- -1329.8250               297.1806               297.1825
 Red. masses --     1.0341                 1.0294                 1.0294
 Frc consts  --     1.0774                 0.0536                 0.0536
 IR Inten    --   122.8546                 0.0357                 0.0357

                     4                      5                      6
                     A                      A                      A
 Frequencies --  1321.2164              1387.2080              1392.9268
 Red. masses --     1.1813                 1.1015                 1.1323
 Frc consts  --     1.2149                 1.2489                 1.2944
 IR Inten    --     8.0301                 1.7224                 5.2574

                     7                      8                      9
                     A                      A                      A
 Frequencies --  1392.9274              1540.1792              1540.1795
 Red. masses --     1.1323                 1.0229                 1.0229
 Frc consts  --     1.2944                 1.4297                 1.4297
 IR Inten    --     5.2574                 0.9778                 0.9779

                    10                     11                     12
                     A                      A                      A
 Frequencies --  3168.2341              3317.8268              3317.8289
 Red. masses --     1.0218                 1.1096                 1.1096
 Frc consts  --     6.0428                 7.1969                 7.1969
 IR Inten    --     3.9091                12.1632                12.1631

 - Thermochemistry -
 -------------------
 Temperature   298.150 Kelvin.  Pressure   1.00000 Atm.
 Atom  1 has atomic number  6 and mass  12.00000

 Molecular mass:    17.03913 amu.
 Principal axes and moments of inertia in atomic units:
                           1         2         3
     EIGENVALUES --    11.82726  29.63005  29.63005
           X           -0.06457   0.00000   0.99791
           Y           -0.24182   0.97019  -0.01565
           Z            0.96817   0.24233   0.06265
 This molecule is an asymmetric top.
 Rotational symmetry number  1.
 Rotational temperatures (Kelvin)      7.32323     2.92318     2.92317
 Rotational constants (GHZ):         152.59162    60.90916    60.90915
    1 imaginary frequencies ignored.
 Zero-point vibrational energy     113483.1 (Joules/Mol)
                                   27.12311 (Kcal/Mol)
 Warning -- explicit consideration of   2 degrees of freedom as
           vibrations may cause significant error
 Vibrational temperatures:    427.58   427.58  1900.93  1995.88  2004.11
          (Kelvin)           2004.11  2215.97  2215.97  4558.38  4773.61
                             4773.61

 Zero-point correction=                           0.043223 (Hartree/Particle)
 Thermal correction to Energy=                    0.046945
 Thermal correction to Enthalpy=                  0.047889
 Thermal correction to Gibbs Free Energy=         0.021387
 Sum of electronic and zero-point Energies=            -40.791220
 Sum of electronic and thermal Energies=               -40.787498
 Sum of electronic and thermal Enthalpies=             -40.786554
 Sum of electronic and thermal Free Energies=          -40.813056

                     E (Thermal)             CV                S
                      KCal/Mol        Cal/Mol-Kelvin    Cal/Mol-Kelvin
 Total                   29.458              9.915             55.778
 Electronic               0.000              0.000              1.377
 Translational            0.889              2.981             34.443
 Rotational               0.889              2.981             16.992
 Vibrational             27.681              3.954              2.966
 Vibration  1             0.691              1.679              1.433
 Vibration  2             0.691              1.679              1.433

 Normal termination of Gaussian 03 at Wed Apr 10 03:14:18 2013.
