 Gaussian 03, Revision C.02,
 Gaussian 03:  AM64L-G03RevC.02 12-Jun-2004

 -------------------------------------------------
 #P MP2 6-31G** iop(6/7=3) gfinput pop=full # freq
 -------------------------------------------------

 ---
 job
 ---
 Symbolic Z-matrix:
 Charge =  0 Multiplicity = 2

                         Standard orientation:
 ---------------------------------------------------------------------
 Center     Atomic     Atomic              Coordinates (Angstroms)
 Number     Number      Type              X           Y           Z
 ---------------------------------------------------------------------
    1          6             0       -0.006078   -0.038776   -0.253376
    2          1             0        0.969330   -0.448102   -0.481858
    3          1             0       -0.182803    0.945333   -0.667467
    4          1             0       -0.823574   -0.733593   -0.395168
    5          1             0        0.025720    0.164102    1.072331
    6          1             0        0.047797    0.304917    1.992418
 ---------------------------------------------------------------------

 SCF Done:  E(UHF) =  -40.6619140045     A.U. after   14 cycles
 E2 =    -0.1663940565D+00 EUMP2 =    -0.40828308061042D+02

 The electronic state is 2-A.
 Alpha  occ. eigenvalues --  -11.24113  -0.97034  -0.62745  -0.57598  -0.57598
 Alpha  occ. eigenvalues --   -0.35804
 Alpha virt. eigenvalues --    0.25560   0.31617   0.31617   0.35566   0.71210
 Alpha virt. eigenvalues --    0.71210   0.74788   0.90726   1.13649   1.13649
 Alpha virt. eigenvalues --    1.17303   1.20270   1.41611   1.61736   1.61736

  Beta  occ. eigenvalues --  -11.22246  -0.91014  -0.56456  -0.56456  -0.53171
  Beta virt. eigenvalues --    0.10750   0.26729   0.32593   0.32593   0.40621
  Beta virt. eigenvalues --    0.71611   0.71611   0.83789   0.97571   1.14785
  Beta virt. eigenvalues --    1.14785   1.19138   1.22808   1.44283   1.65299

 Mulliken atomic charges:
              1
     1  C   -0.386424
     2  H    0.139220
     3  H    0.139220
     4  H    0.139220
     5  H   -0.007717
     6  H   -0.023517
 Sum of Mulliken charges=   0.00000

 Dipole moment (field-independent basis, Debye):
    X=    -0.0205    Y=    -0.1310    Z=    -0.8562  Tot=     0.8664
 Quadrupole moment (field-independent basis, Debye-Ang):
   XX=    -9.3941   YY=    -9.4406   ZZ=   -11.4266
   XY=    -0.0075   XZ=    -0.0488   YZ=    -0.3112

  Exact polarizability:  12.578   0.057  12.931   0.371   2.366  28.032
 Approx polarizability:  10.153   0.028  10.326   0.182   1.158  17.717

 ******    1 imaginary frequencies (negative Signs) ******

                     1                      2                      3
                     A                      A                      A
 Frequencies -- -2114.0966               545.2454               545.2486
 Red. masses --     1.0795                 1.0407                 1.0407
 Frc consts  --     2.8426                 0.1823                 0.1823
 IR Inten    --    36.6553                 0.2999                 0.2999

                     4                      5                      6
                     A                      A                      A
 Frequencies --  1192.0494              1289.5267              1289.5271
 Red. masses --     1.0632                 1.0704                 1.0704
 Frc consts  --     0.8901                 1.0487                 1.0487
 IR Inten    --     1.8296                 1.7262                 1.7262

                     7                      8                      9
                     A                      A                      A
 Frequencies --  1509.8776              1509.8786              1551.5818
 Red. masses --     1.0621                 1.0621                 1.1739
 Frc consts  --     1.4266                 1.4266                 1.6651
 IR Inten    --     2.4258                 2.4258                 0.1769

                    10                     11                     12
                     A                      A                      A
 Frequencies --  3179.1802              3338.7423              3338.7467
 Red. masses --     1.0190                 1.1117                 1.1117
 Frc consts  --     6.0681                 7.3013                 7.3013
 IR Inten    --     1.5272                 9.9251                 9.9250

 - Thermochemistry -
 -------------------
 Temperature   298.150 Kelvin.  Pressure   1.00000 Atm.
 Atom  1 has atomic number  6 and mass  12.00000

 Molecular mass:    17.03913 amu.
 Principal axes and moments of inertia in atomic units:
                           1         2         3
     EIGENVALUES --    11.88942  30.07172  30.07172
           X            0.02371   0.00000   0.99972
           Y            0.15123   0.98849  -0.00359
           Z            0.98821  -0.15128  -0.02343
 This molecule is an asymmetric top.
 Rotational symmetry number  1.
 Rotational temperatures (Kelvin)      7.28495     2.88024     2.88024
 Rotational constants (GHZ):         151.79391    60.01457    60.01456
    1 imaginary frequencies ignored.
 Zero-point vibrational energy     115377.5 (Joules/Mol)
                                   27.57587 (Kcal/Mol)
 Warning -- explicit consideration of   2 degrees of freedom as
           vibrations may cause significant error
 Vibrational temperatures:    784.49   784.49  1715.09  1855.34  1855.34
          (Kelvin)           2172.37  2172.38  2232.38  4574.13  4803.70
                             4803.71

 Zero-point correction=                           0.043945 (Hartree/Particle)
 Thermal correction to Energy=                    0.047217
 Thermal correction to Enthalpy=                  0.048161
 Thermal correction to Gibbs Free Energy=         0.022463
 Sum of electronic and zero-point Energies=            -40.784363
 Sum of electronic and thermal Energies=               -40.781091
 Sum of electronic and thermal Enthalpies=             -40.780147
 Sum of electronic and thermal Free Energies=          -40.805845

                     E (Thermal)             CV                S
                      KCal/Mol        Cal/Mol-Kelvin    Cal/Mol-Kelvin
 Total                   29.629              8.986             54.087
 Electronic               0.000              0.000              1.377
 Translational            0.889              2.981             34.443
 Rotational               0.889              2.981             17.026
 Vibrational             27.852              3.024              1.240
 Vibration  1             0.900              1.150              0.554
 Vibration  2             0.900              1.150              0.554

 Normal termination of Gaussian 03 at Wed Apr 10 03:14:03 2013.
