 Gaussian 03, Revision C.02,
 Gaussian 03:  AM64L-G03RevC.02 12-Jun-2004

 -------------------------------------------------
 #P MP2 6-31G** iop(6/7=3) gfinput pop=full # freq
 -------------------------------------------------

 ---
 job
 ---
 Symbolic Z-matrix:
 Charge =  0 Multiplicity = 2

                         Standard orientation:
 ---------------------------------------------------------------------
 Center     Atomic     Atomic              Coordinates (Angstroms)
 Number     Number      Type              X           Y           Z
 ---------------------------------------------------------------------
    1          6             0       -0.063955   -0.098548   -0.207925
    2          1             0        0.805091   -0.652433   -0.544901
    3          1             0       -0.317448    0.732787   -0.856159
    4          1             0       -0.911859   -0.734028    0.021873
    5          1             0        0.253892    0.391222    0.825445
    6          1             0        0.554056    0.853741    1.801295
 ---------------------------------------------------------------------

 SCF Done:  E(UHF) =  -40.6708848080     A.U. after   13 cycles
 E2 =    -0.1678742037D+00 EUMP2 =    -0.40838759011756D+02

 The electronic state is 2-A.
 Alpha  occ. eigenvalues --  -11.22702  -0.96355  -0.62345  -0.56418  -0.56418
 Alpha  occ. eigenvalues --   -0.38905
 Alpha virt. eigenvalues --    0.26137   0.32021   0.32021   0.37823   0.71798
 Alpha virt. eigenvalues --    0.71798   0.74576   0.91898   1.13945   1.13945
 Alpha virt. eigenvalues --    1.17859   1.18866   1.42964   1.61272   1.61272

  Beta  occ. eigenvalues --  -11.21638  -0.92973  -0.55826  -0.55826  -0.52862
  Beta virt. eigenvalues --    0.10147   0.26869   0.32544   0.32544   0.42086
  Beta virt. eigenvalues --    0.71955   0.71955   0.79476   1.04723   1.14672
  Beta virt. eigenvalues --    1.14672   1.18604   1.21223   1.45198   1.63057

 Mulliken atomic charges:
              1
     1  C   -0.412794
     2  H    0.130799
     3  H    0.130799
     4  H    0.130799
     5  H    0.039823
     6  H   -0.019426
 Sum of Mulliken charges=   0.00000

 Dipole moment (field-independent basis, Debye):
    X=    -0.1419    Y=    -0.2186    Z=    -0.4613  Tot=     0.5298
 Quadrupole moment (field-independent basis, Debye-Ang):
   XX=    -9.5955   YY=    -9.7690   ZZ=   -10.8039
   XY=    -0.1946   XZ=    -0.4105   YZ=    -0.6326

  Exact polarizability:  13.535   1.346  14.735   2.840   4.376  21.894
 Approx polarizability:  10.714   0.649  11.293   1.370   2.111  14.747

 ******    3 imaginary frequencies (negative Signs) ******

                     1                      2                      3
                     A                      A                      A
 Frequencies --  -198.0781              -105.8839              -105.8749
 Red. masses --     1.0090                 1.0260                 1.0260
 Frc consts  --     0.0233                 0.0068                 0.0068
 IR Inten    --    88.5610                 0.2015                 0.2015

                     4                      5                      6
                     A                      A                      A
 Frequencies --  1330.1773              1410.4263              1410.4268
 Red. masses --     1.2542                 1.1532                 1.1532
 Frc consts  --     1.3075                 1.3516                 1.3516
 IR Inten    --     8.3816                 6.6098                 6.6098

                     7                      8                      9
                     A                      A                      A
 Frequencies --  1561.5494              1561.5496              1767.1986
 Red. masses --     1.0123                 1.0123                 1.0696
 Frc consts  --     1.4543                 1.4543                 1.9682
 IR Inten    --     0.4137                 0.4137                38.8425

                    10                     11                     12
                     A                      A                      A
 Frequencies --  3164.4650              3308.5387              3308.5430
 Red. masses --     1.0237                 1.1084                 1.1084
 Frc consts  --     6.0399                 7.1486                 7.1486
 IR Inten    --     5.0124                13.4318                13.4317

 - Thermochemistry -
 -------------------
 Temperature   298.150 Kelvin.  Pressure   1.00000 Atm.
 Atom  1 has atomic number  6 and mass  12.00000

 Molecular mass:    17.03913 amu.
 Principal axes and moments of inertia in atomic units:
                           1         2         3
     EIGENVALUES --    11.78967  29.56646  29.56646
           X            0.26780   0.00000   0.96348
           Y            0.41265   0.90364  -0.11469
           Z            0.87064  -0.42829  -0.24199
 This molecule is an asymmetric top.
 Rotational symmetry number  1.
 Rotational temperatures (Kelvin)      7.34658     2.92946     2.92946
 Rotational constants (GHZ):         153.07813    61.04015    61.04014
    3 imaginary frequencies ignored.
 Zero-point vibrational energy     112585.8 (Joules/Mol)
                                   26.90865 (Kcal/Mol)
 Vibrational temperatures:   1913.83  2029.29  2029.29  2246.72  2246.72
          (Kelvin)           2542.60  4552.95  4760.24  4760.25

 Zero-point correction=                           0.042882 (Hartree/Particle)
 Thermal correction to Energy=                    0.045748
 Thermal correction to Enthalpy=                  0.046692
 Thermal correction to Gibbs Free Energy=         0.021564
 Sum of electronic and zero-point Energies=            -40.795877
 Sum of electronic and thermal Energies=               -40.793011
 Sum of electronic and thermal Enthalpies=             -40.792067
 Sum of electronic and thermal Free Energies=          -40.817195

                     E (Thermal)             CV                S
                      KCal/Mol        Cal/Mol-Kelvin    Cal/Mol-Kelvin
 Total                   28.707              6.449             52.885
 Electronic               0.000              0.000              1.377
 Translational            0.889              2.981             34.443
 Rotational               0.889              2.981             16.984
 Vibrational             26.930              0.488              0.080

 Normal termination of Gaussian 03 at Wed Apr 10 03:14:21 2013.
