 Gaussian 09, Revision A.02,
 Gaussian 09:  AM64L-G09RevA.02 11-Jun-2009

 --------------------------------------------------
 #P M06 6-311G** FREQ # GFINPUT IOP(6/7=3) POP=FULL
 --------------------------------------------------

 --------------------
 RC, from TS 1reverse
 --------------------
 Symbolic Z-matrix:
 Charge =  0 Multiplicity = 2

                         Standard orientation:
 ---------------------------------------------------------------------
 Center     Atomic      Atomic             Coordinates (Angstroms)
 Number     Number       Type             X           Y           Z
 ---------------------------------------------------------------------
      1          7           0        0.199528   -0.109220    0.007170
      2          7           0        1.311395    0.107226    0.019664
      3          7           0       -1.032880   -0.088328   -0.124349
      4          1           0       -1.483765   -0.772963    0.479928
      5          1           0       -1.862540    1.405221    0.202676
 ---------------------------------------------------------------------

 SCF Done:  E(UM06) =  -165.223044212     A.U. after   19 cycles

 The electronic state is 2-A.
 Alpha  occ. eigenvalues --  -14.56919 -14.47232 -14.45833  -1.17567  -1.00909
 Alpha  occ. eigenvalues --   -0.65602  -0.55968  -0.54515  -0.48166  -0.39134
 Alpha  occ. eigenvalues --   -0.32354  -0.21682
 Alpha virt. eigenvalues --   -0.03791   0.00697   0.03818   0.22248   0.25944
 Alpha virt. eigenvalues --    0.36426   0.41923   0.45543   0.50107   0.52905
 Alpha virt. eigenvalues --    0.60154   0.64571   0.67547   0.68805   0.74174

  Beta  occ. eigenvalues --  -14.56889 -14.46901 -14.45687  -1.16983  -1.00339
  Beta  occ. eigenvalues --   -0.65432  -0.54741  -0.54267  -0.47183  -0.36951
  Beta  occ. eigenvalues --   -0.31376
  Beta virt. eigenvalues --   -0.06637  -0.02378   0.02169   0.05127   0.22690
  Beta virt. eigenvalues --    0.35990   0.38261   0.41832   0.45625   0.50117
  Beta virt. eigenvalues --    0.53878   0.60392   0.65108   0.67918   0.68832

 Mulliken atomic charges:
              1
     1  N    0.223926
     2  N   -0.125119
     3  N   -0.319719
     4  H    0.266808
     5  H   -0.045896
 Sum of Mulliken atomic charges =  -0.00000

 Dipole moment (field-independent basis, Debye):
    X=             -0.7010    Y=             -1.7432    Z=              0.9654  Tot=              2.1124
 Quadrupole moment (field-independent basis, Debye-Ang):
   XX=            -20.7925   YY=            -17.9629   ZZ=            -17.7921
   XY=              2.6716   XZ=             -1.5692   YZ=             -1.1161

  Exact polarizability:  50.276  -7.667  22.437  -1.605   0.468  11.508
 Approx polarizability: 102.250  -7.007  26.714   0.507   0.134  14.869

 ******    1 imaginary frequencies (negative Signs) ******

                     1                      2                      3
                     A                      A                      A
 Frequencies --  -846.5629               295.5823               418.5068
 Red. masses --     1.1847                 1.2053                 1.3712
 Frc consts  --     0.5002                 0.0620                 0.1415
 IR Inten    --    57.0848                11.1325                61.2310

                     4                      5                      6
                     A                      A                      A
 Frequencies --   569.8711               644.3300              1172.9399
 Red. masses --     4.9571                 2.7650                 1.8250
 Frc consts  --     0.9485                 0.6763                 1.4793
 IR Inten    --     7.3408                22.2050               137.0351

                     7                      8                      9
                     A                      A                      A
 Frequencies --  1287.5251              2269.8846              3524.7312
 Red. masses --     2.5873                12.0848                 1.0764
 Frc consts  --     2.5271                36.6858                 7.8788
 IR Inten    --     7.6714               431.6584                59.6533

 - Thermochemistry -
 -------------------
 Temperature   298.150 Kelvin.  Pressure   1.00000 Atm.
 Atom     1 has atomic number  7 and mass  14.00307

 Molecular mass:    44.02487 amu.
 Principal axes and moments of inertia in atomic units:
                           1         2         3
     Eigenvalues --    12.22571 162.77634 171.74219
           X            0.99904  -0.03616  -0.02489
           Y            0.03580   0.99925  -0.01495
           Z            0.02541   0.01404   0.99958
 This molecule is an asymmetric top.
 Rotational symmetry number  1.
 Rotational temperatures (Kelvin)      7.08456     0.53210     0.50432
 Rotational constants (GHZ):         147.61849    11.08725    10.50843
    1 imaginary frequencies ignored.
 Zero-point vibrational energy      60910.1 (Joules/Mol)
                                   14.55786 (Kcal/Mol)
 Warning -- explicit consideration of   3 degrees of freedom as
           vibrations may cause significant error
 Vibrational temperatures:    425.28   602.14   819.92   927.05  1687.60
          (Kelvin)           1852.46  3265.85  5071.30

 Zero-point correction=                           0.023199 (Hartree/Particle)
 Thermal correction to Energy=                    0.027095
 Thermal correction to Enthalpy=                  0.028039
 Thermal correction to Gibbs Free Energy=        -0.001615
 Sum of electronic and zero-point Energies=           -165.199845
 Sum of electronic and thermal Energies=              -165.195950
 Sum of electronic and thermal Enthalpies=            -165.195005
 Sum of electronic and thermal Free Energies=         -165.224659

                     E (Thermal)             CV                S
                      KCal/Mol        Cal/Mol-Kelvin    Cal/Mol-Kelvin
 Total                   17.002             11.491             62.411
 Electronic               0.000              0.000              1.377
 Translational            0.889              2.981             37.273
 Rotational               0.889              2.981             20.463
 Vibrational             15.225              5.530              3.298
 Vibration     1          0.690              1.682              1.442
 Vibration     2          0.781              1.430              0.897
 Vibration     3          0.926              1.096              0.504

 Normal termination of Gaussian 09 at Tue Apr 29 14:49:57 2014.
