 Gaussian 09, Revision A.02,
 Gaussian 09:  AM64L-G09RevA.02 11-Jun-2009

 --------------------------------------------------
 #P M06 6-311G** FREQ # GFINPUT IOP(6/7=3) POP=FULL
 --------------------------------------------------

 ---------------------
 RC, from TS reverse 4
 ---------------------
 Symbolic Z-matrix:
 Charge =  0 Multiplicity = 2

                         Standard orientation:
 ---------------------------------------------------------------------
 Center     Atomic      Atomic             Coordinates (Angstroms)
 Number     Number       Type             X           Y           Z
 ---------------------------------------------------------------------
      1          7           0        0.200445   -0.105110    0.008477
      2          7           0        1.310974    0.111175    0.019293
      3          7           0       -1.029219   -0.101624   -0.125789
      4          1           0       -1.474182   -0.780185    0.490081
      5          1           0       -1.901212    1.449099    0.196048
 ---------------------------------------------------------------------

 SCF Done:  E(UM06) =  -165.223404193     A.U. after   20 cycles

 The electronic state is 2-A.
 Alpha  occ. eigenvalues --  -14.57156 -14.47253 -14.45442  -1.17677  -1.00948
 Alpha  occ. eigenvalues --   -0.65456  -0.55812  -0.54628  -0.48136  -0.38568
 Alpha  occ. eigenvalues --   -0.32235  -0.22559
 Alpha virt. eigenvalues --   -0.03727   0.00761   0.03803   0.22455   0.25852
 Alpha virt. eigenvalues --    0.36578   0.41951   0.45490   0.50114   0.52768
 Alpha virt. eigenvalues --    0.60287   0.64556   0.67520   0.68865   0.74271

  Beta  occ. eigenvalues --  -14.57139 -14.46987 -14.45299  -1.17210  -1.00474
  Beta  occ. eigenvalues --   -0.65303  -0.54780  -0.54442  -0.47342  -0.36511
  Beta  occ. eigenvalues --   -0.31186
  Beta virt. eigenvalues --   -0.06492  -0.02458   0.02107   0.05048   0.22874
  Beta virt. eigenvalues --    0.36274   0.39140   0.41833   0.45626   0.50126
  Beta virt. eigenvalues --    0.53783   0.60505   0.65084   0.67835   0.68892

 Mulliken atomic charges:
              1
     1  N    0.229911
     2  N   -0.126133
     3  N   -0.323262
     4  H    0.265365
     5  H   -0.045881
 Sum of Mulliken atomic charges =   0.00000

 Dipole moment (field-independent basis, Debye):
    X=             -0.6425    Y=             -1.7456    Z=              0.9969  Tot=              2.1104
 Quadrupole moment (field-independent basis, Debye-Ang):
   XX=            -20.8661   YY=            -17.9512   ZZ=            -17.7566
   XY=              2.6527   XZ=             -1.6049   YZ=             -1.1331

  Exact polarizability:  48.708  -6.292  21.407  -1.291   0.214  11.461
 Approx polarizability:  98.658  -3.820  24.913   1.072  -0.181  14.811

 ******    1 imaginary frequencies (negative Signs) ******

                     1                      2                      3
                     A                      A                      A
 Frequencies --  -617.6871               222.4078               366.9360
 Red. masses --     1.1726                 1.2042                 1.2539
 Frc consts  --     0.2636                 0.0351                 0.0995
 IR Inten    --     8.7699                 7.7015                68.9941

                     4                      5                      6
                     A                      A                      A
 Frequencies --   564.8545               634.3028              1168.8701
 Red. masses --     4.9299                 3.4105                 1.6973
 Frc consts  --     0.9267                 0.8085                 1.3663
 IR Inten    --    11.0504                17.0473               158.8605

                     7                      8                      9
                     A                      A                      A
 Frequencies --  1292.5982              2283.6143              3520.4986
 Red. masses --     3.0762                12.1904                 1.0762
 Frc consts  --     3.0282                37.4553                 7.8587
 IR Inten    --     2.5267               430.0839                59.1242

 - Thermochemistry -
 -------------------
 Temperature   298.150 Kelvin.  Pressure   1.00000 Atm.
 Atom     1 has atomic number  7 and mass  14.00307

 Molecular mass:    44.02487 amu.
 Principal axes and moments of inertia in atomic units:
                           1         2         3
     Eigenvalues --    12.84356 162.84890 172.34870
           X            0.99890  -0.03961  -0.02491
           Y            0.03920   0.99909  -0.01699
           Z            0.02556   0.01599   0.99955
 This molecule is an asymmetric top.
 Rotational symmetry number  1.
 Rotational temperatures (Kelvin)      6.74376     0.53187     0.50255
 Rotational constants (GHZ):         140.51722    11.08231    10.47145
    1 imaginary frequencies ignored.
 Zero-point vibrational energy      60136.8 (Joules/Mol)
                                   14.37303 (Kcal/Mol)
 Warning -- explicit consideration of   3 degrees of freedom as
           vibrations may cause significant error
 Vibrational temperatures:    319.99   527.94   812.70   912.62  1681.74
          (Kelvin)           1859.76  3285.61  5065.21

 Zero-point correction=                           0.022905 (Hartree/Particle)
 Thermal correction to Energy=                    0.026960
 Thermal correction to Enthalpy=                  0.027904
 Thermal correction to Gibbs Free Energy=        -0.002116
 Sum of electronic and zero-point Energies=           -165.200499
 Sum of electronic and thermal Energies=              -165.196444
 Sum of electronic and thermal Enthalpies=            -165.195500
 Sum of electronic and thermal Free Energies=         -165.225520

                     E (Thermal)             CV                S
                      KCal/Mol        Cal/Mol-Kelvin    Cal/Mol-Kelvin
 Total                   16.918             11.758             63.182
 Electronic               0.000              0.000              1.377
 Translational            0.889              2.981             37.273
 Rotational               0.889              2.981             20.516
 Vibrational             15.140              5.796              4.016
 Vibration     1          0.648              1.807              1.939
 Vibration     2          0.740              1.540              1.093
 Vibration     3          0.921              1.107              0.514

 Normal termination of Gaussian 09 at Tue Apr 29 14:51:28 2014.
