 Gaussian 09, Revision A.02,
 Gaussian 09:  AM64L-G09RevA.02 11-Jun-2009

 --------------------------------------------------
 #P M06 6-311G** FREQ # GFINPUT IOP(6/7=3) POP=FULL
 --------------------------------------------------

 ---------------------
 RC, from TS reverse 7
 ---------------------
 Symbolic Z-matrix:
 Charge =  0 Multiplicity = 2

                         Standard orientation:
 ---------------------------------------------------------------------
 Center     Atomic      Atomic             Coordinates (Angstroms)
 Number     Number       Type             X           Y           Z
 ---------------------------------------------------------------------
      1          7           0        0.201375   -0.101073    0.009609
      2          7           0        1.310835    0.115457    0.018955
      3          7           0       -1.025841   -0.114989   -0.127092
      4          1           0       -1.463823   -0.788188    0.499926
      5          1           0       -1.940763    1.492419    0.189770
 ---------------------------------------------------------------------

 SCF Done:  E(UM06) =  -165.224014235     A.U. after   20 cycles

 The electronic state is 2-A.
 Alpha  occ. eigenvalues --  -14.57275 -14.47200 -14.45093  -1.17706  -1.00932
 Alpha  occ. eigenvalues --   -0.65301  -0.55632  -0.54664  -0.48057  -0.38052
 Alpha  occ. eigenvalues --   -0.32105  -0.23396
 Alpha virt. eigenvalues --   -0.03620   0.00864   0.03800   0.22644   0.25767
 Alpha virt. eigenvalues --    0.36715   0.42010   0.45493   0.50154   0.52675
 Alpha virt. eigenvalues --    0.60439   0.64513   0.67513   0.68945   0.74210

  Beta  occ. eigenvalues --  -14.57266 -14.46986 -14.44957  -1.17332  -1.00537
  Beta  occ. eigenvalues --   -0.65165  -0.54767  -0.54524  -0.47417  -0.36128
  Beta  occ. eigenvalues --   -0.30985
  Beta virt. eigenvalues --   -0.06280  -0.02493   0.02070   0.04998   0.23044
  Beta virt. eigenvalues --    0.36481   0.39986   0.41862   0.45692   0.50167
  Beta virt. eigenvalues --    0.53745   0.60623   0.65063   0.67790   0.68969

 Mulliken atomic charges:
              1
     1  N    0.233310
     2  N   -0.128128
     3  N   -0.325830
     4  H    0.263908
     5  H   -0.043260
 Sum of Mulliken atomic charges =  -0.00000

 Dipole moment (field-independent basis, Debye):
    X=             -0.6221    Y=             -1.7206    Z=              1.0302  Tot=              2.0997
 Quadrupole moment (field-independent basis, Debye-Ang):
   XX=            -20.9000   YY=            -17.9012   ZZ=            -17.7185
   XY=              2.5809   XZ=             -1.6454   YZ=             -1.1448

  Exact polarizability:  47.386  -5.087  20.493  -1.027   0.001  11.427
 Approx polarizability:  95.710  -1.202  23.473   1.500  -0.412  14.772

 ******    1 imaginary frequencies (negative Signs) ******

                     1                      2                      3
                     A                      A                      A
 Frequencies --  -407.1296               155.1390               317.7898
 Red. masses --     1.1545                 1.2063                 1.2143
 Frc consts  --     0.1127                 0.0171                 0.0723
 IR Inten    --     8.7664                 6.1336                74.0569

                     4                      5                      6
                     A                      A                      A
 Frequencies --   561.4736               628.3343              1166.2920
 Red. masses --     4.8075                 3.9237                 1.6188
 Frc consts  --     0.8930                 0.9127                 1.2974
 IR Inten    --    15.0232                13.4451               175.6460

                     7                      8                      9
                     A                      A                      A
 Frequencies --  1298.4712              2294.7632              3516.6427
 Red. masses --     3.5401                12.2556                 1.0760
 Frc consts  --     3.5166                38.0242                 7.8403
 IR Inten    --     1.0558               426.2476                58.5682

 - Thermochemistry -
 -------------------
 Temperature   298.150 Kelvin.  Pressure   1.00000 Atm.
 Atom     1 has atomic number  7 and mass  14.00307

 Molecular mass:    44.02487 amu.
 Principal axes and moments of inertia in atomic units:
                           1         2         3
     Eigenvalues --    13.49504 163.00760 173.07695
           X            0.99876  -0.04315  -0.02490
           Y            0.04268   0.99891  -0.01888
           Z            0.02569   0.01780   0.99951
 This molecule is an asymmetric top.
 Rotational symmetry number  1.
 Rotational temperatures (Kelvin)      6.41820     0.53135     0.50044
 Rotational constants (GHZ):         133.73368    11.07152    10.42739
    1 imaginary frequencies ignored.
 Zero-point vibrational energy      59447.9 (Joules/Mol)
                                   14.20838 (Kcal/Mol)
 Warning -- explicit consideration of   3 degrees of freedom as
           vibrations may cause significant error
 Vibrational temperatures:    223.21   457.23   807.83   904.03  1678.03
          (Kelvin)           1868.21  3301.65  5059.66

 Zero-point correction=                           0.022642 (Hartree/Particle)
 Thermal correction to Energy=                    0.026866
 Thermal correction to Enthalpy=                  0.027810
 Thermal correction to Gibbs Free Energy=        -0.002670
 Sum of electronic and zero-point Energies=           -165.201372
 Sum of electronic and thermal Energies=              -165.197148
 Sum of electronic and thermal Enthalpies=            -165.196204
 Sum of electronic and thermal Free Energies=         -165.226684

                     E (Thermal)             CV                S
                      KCal/Mol        Cal/Mol-Kelvin    Cal/Mol-Kelvin
 Total                   16.859             11.966             64.150
 Electronic               0.000              0.000              1.377
 Translational            0.889              2.981             37.273
 Rotational               0.889              2.981             20.571
 Vibrational             15.081              6.004              4.929
 Vibration     1          0.620              1.897              2.608
 Vibration     2          0.704              1.640              1.321
 Vibration     3          0.917              1.115              0.521

 Normal termination of Gaussian 09 at Tue Apr 29 14:52:57 2014.
