 Gaussian 09, Revision A.02,
 Gaussian 09:  AM64L-G09RevA.02 11-Jun-2009

 --------------------------------------------------
 #P M06 6-311G** FREQ # GFINPUT IOP(6/7=3) POP=FULL
 --------------------------------------------------

 ---------------------
 RC, from TS reverse 8
 ---------------------
 Symbolic Z-matrix:
 Charge =  0 Multiplicity = 2

                         Standard orientation:
 ---------------------------------------------------------------------
 Center     Atomic      Atomic             Coordinates (Angstroms)
 Number     Number       Type             X           Y           Z
 ---------------------------------------------------------------------
      1          7           0        0.201694   -0.099742    0.009945
      2          7           0        1.310844    0.116959    0.018852
      3          7           0       -1.024767   -0.119458   -0.127495
      4          1           0       -1.460221   -0.791012    0.503138
      5          1           0       -1.954175    1.506699    0.187751
 ---------------------------------------------------------------------

 SCF Done:  E(UM06) =  -165.224247473     A.U. after   19 cycles

 The electronic state is 2-A.
 Alpha  occ. eigenvalues --  -14.57297 -14.47173 -14.44988  -1.17704  -1.00920
 Alpha  occ. eigenvalues --   -0.65250  -0.55571  -0.54664  -0.48025  -0.37892
 Alpha  occ. eigenvalues --   -0.32062  -0.23662
 Alpha virt. eigenvalues --   -0.03581   0.00902   0.03800   0.22701   0.25743
 Alpha virt. eigenvalues --    0.36758   0.42033   0.45503   0.50171   0.52650
 Alpha virt. eigenvalues --    0.60491   0.64486   0.67512   0.68973   0.74143

  Beta  occ. eigenvalues --  -14.57289 -14.46974 -14.44855  -1.17356  -1.00547
  Beta  occ. eigenvalues --   -0.65119  -0.54757  -0.54536  -0.47429  -0.36014
  Beta  occ. eigenvalues --   -0.30920
  Beta virt. eigenvalues --   -0.06197  -0.02497   0.02061   0.04988   0.23096
  Beta virt. eigenvalues --    0.36539   0.40258   0.41876   0.45724   0.50185
  Beta virt. eigenvalues --    0.53741   0.60663   0.65052   0.67780   0.68996

 Mulliken atomic charges:
              1
     1  N    0.234043
     2  N   -0.128899
     3  N   -0.326511
     4  H    0.263424
     5  H   -0.042057
 Sum of Mulliken atomic charges =  -0.00000

 Dipole moment (field-independent basis, Debye):
    X=             -0.6206    Y=             -1.7085    Z=              1.0412  Tot=              2.0948
 Quadrupole moment (field-independent basis, Debye-Ang):
   XX=            -20.9057   YY=            -17.8791   ZZ=            -17.7058
   XY=              2.5495   XZ=             -1.6591   YZ=             -1.1481

  Exact polarizability:  46.982  -4.710  20.205  -0.947  -0.063  11.417
 Approx polarizability:  94.862  -0.439  23.062   1.618  -0.474  14.762

 ******    1 imaginary frequencies (negative Signs) ******

                     1                      2                      3
                     A                      A                      A
 Frequencies --  -311.4551               135.1237               302.7554
 Red. masses --     1.1528                 1.2090                 1.2054
 Frc consts  --     0.0659                 0.0130                 0.0651
 IR Inten    --    11.2226                 6.0172                75.4712

                     4                      5                      6
                     A                      A                      A
 Frequencies --   560.9049               627.4483              1165.6372
 Red. masses --     4.7554                 4.0347                 1.6006
 Frc consts  --     0.8815                 0.9359                 1.2813
 IR Inten    --    15.9669                12.4237               179.9816

                     7                      8                      9
                     A                      A                      A
 Frequencies --  1300.3834              2297.9468              3515.4445
 Red. masses --     3.6793                12.2712                 1.0760
 Frc consts  --     3.6657                38.1784                 7.8346
 IR Inten    --     1.1936               424.6000                58.3714

 - Thermochemistry -
 -------------------
 Temperature   298.150 Kelvin.  Pressure   1.00000 Atm.
 Atom     1 has atomic number  7 and mass  14.00307

 Molecular mass:    44.02487 amu.
 Principal axes and moments of inertia in atomic units:
                           1         2         3
     Eigenvalues --    13.71912 163.07853 173.34519
           X            0.99871  -0.04434  -0.02489
           Y            0.04386   0.99885  -0.01948
           Z            0.02573   0.01837   0.99950
 This molecule is an asymmetric top.
 Rotational symmetry number  1.
 Rotational temperatures (Kelvin)      6.31336     0.53112     0.49966
 Rotational constants (GHZ):         131.54930    11.06670    10.41126
    1 imaginary frequencies ignored.
 Zero-point vibrational energy      59248.9 (Joules/Mol)
                                   14.16083 (Kcal/Mol)
 Warning -- explicit consideration of   3 degrees of freedom as
           vibrations may cause significant error
 Vibrational temperatures:    194.41   435.60   807.02   902.76  1677.09
          (Kelvin)           1870.96  3306.23  5057.93

 Zero-point correction=                           0.022567 (Hartree/Particle)
 Thermal correction to Energy=                    0.026844
 Thermal correction to Enthalpy=                  0.027789
 Thermal correction to Gibbs Free Energy=        -0.002864
 Sum of electronic and zero-point Energies=           -165.201681
 Sum of electronic and thermal Energies=              -165.197403
 Sum of electronic and thermal Enthalpies=            -165.196459
 Sum of electronic and thermal Free Energies=         -165.227112

                     E (Thermal)             CV                S
                      KCal/Mol        Cal/Mol-Kelvin    Cal/Mol-Kelvin
 Total                   16.845             12.018             64.514
 Electronic               0.000              0.000              1.377
 Translational            0.889              2.981             37.273
 Rotational               0.889              2.981             20.589
 Vibrational             15.068              6.057              5.276
 Vibration     1          0.613              1.918              2.872
 Vibration     2          0.694              1.668              1.402
 Vibration     3          0.917              1.116              0.522

 Normal termination of Gaussian 09 at Tue Apr 29 14:53:28 2014.
