 Gaussian 09, Revision A.02,
 Gaussian 09:  AM64L-G09RevA.02 11-Jun-2009

 ----------------------------------------------------------------------
 #P M06 6-311G** IRC=(reverse, calcfc, stepsize=4, maxcyc=10) # GFINPUT
  IOP(6/7=3) POP=FULL
 ----------------------------------------------------------------------

 --------------------
 reverse IRC, from TS
 --------------------
 Symbolic Z-matrix:
 Charge =  0 Multiplicity = 2

 SCF Done:  E(UM06) =  -165.223018668     A.U. after   18 cycles
 SCF Done:  E(UM06) =  -165.223047881     A.U. after   16 cycles
 SCF Done:  E(UM06) =  -165.223127865     A.U. after   16 cycles
 SCF Done:  E(UM06) =  -165.223249371     A.U. after   16 cycles
 SCF Done:  E(UM06) =  -165.223404544     A.U. after   16 cycles
 SCF Done:  E(UM06) =  -165.223586948     A.U. after   16 cycles
 SCF Done:  E(UM06) =  -165.223791077     A.U. after   16 cycles
 SCF Done:  E(UM06) =  -165.224011825     A.U. after   16 cycles
 SCF Done:  E(UM06) =  -165.224244270     A.U. after   16 cycles
 SCF Done:  E(UM06) =  -165.224483753     A.U. after   16 cycles
 SCF Done:  E(UM06) =  -165.224726196     A.U. after   16 cycles

                          Input orientation:
 ---------------------------------------------------------------------
 Center     Atomic      Atomic             Coordinates (Angstroms)
 Number     Number       Type             X           Y           Z
 ---------------------------------------------------------------------
      1          7           0       -0.101212   -0.055600    0.097084
      2          7           0       -0.239411   -0.027200    1.217923
      3          7           0        0.279695   -0.024106   -1.075463
      4          1           0       -0.507369   -0.022956   -1.722834
      5          1           0        1.353930    1.508353   -1.605487
 ---------------------------------------------------------------------

 Alpha  occ. eigenvalues --  -14.57322 -14.47113 -14.44795  -1.17689  -1.00888
 Alpha  occ. eigenvalues --   -0.65150  -0.55450  -0.54652  -0.47959  -0.37590
 Alpha  occ. eigenvalues --   -0.31977  -0.24170
 Alpha virt. eigenvalues --   -0.03499   0.00977   0.03802   0.22804   0.25717
 Alpha virt. eigenvalues --    0.36837   0.42085   0.45531   0.50208   0.52608
 Alpha virt. eigenvalues --    0.60595   0.64411   0.67510   0.69031   0.73940

  Beta  occ. eigenvalues --  -14.57317 -14.46941 -14.44669  -1.17388  -1.00556
  Beta  occ. eigenvalues --   -0.65028  -0.54730  -0.54542  -0.47442  -0.35807
  Beta  occ. eigenvalues --   -0.30792
  Beta virt. eigenvalues --   -0.06012  -0.02498   0.02050   0.04975   0.23189
  Beta virt. eigenvalues --    0.36643   0.40789   0.41909   0.45801   0.50225
  Beta virt. eigenvalues --    0.53745   0.60741   0.65022   0.67765   0.69052

 Mulliken atomic charges:
              1
     1  N    0.235085
     2  N   -0.130456
     3  N   -0.327626
     4  H    0.262356
     5  H   -0.039359
 Sum of Mulliken atomic charges =  -0.00000

 Dipole moment (field-independent basis, Debye):
    X=             -1.6983    Y=             -0.4198    Z=             -1.1322  Tot=              2.0838
 Quadrupole moment (field-independent basis, Debye-Ang):
   XX=            -18.2999   YY=            -19.1259   ZZ=            -18.9218
   XY=             -0.6222   XZ=              3.6389   YZ=              0.7556

  Exact polarizability:   0.000   0.000   0.000   0.000   0.000   0.000
 Approx polarizability:  23.471   5.520  18.840 -17.844  -5.977  88.108

 Normal termination of Gaussian 09 at Tue Apr 29 14:28:57 2014.
