                         Program Version 4.0.1.2 - RELEASE -
|  1> ! RKS BP def2-TZVP RI def2/J
|  2> ! TightSCF Grid5 NoFinalGrid
|  3> ! Opt
|  4> ! Freq
|  5> ! bohrs
|  6> * xyz 0 1
|  7> O -1.396288 -0.075107 0.052125
|  8> O 1.396289 -0.016261 -0.089970
|  9> H -1.775703 1.309756 -1.111179
| 10> H 1.775687 0.140443 1.711854
| 11> *
| 12>
| 13>                          ****END OF INPUT****
 Total Charge           Charge          ....    0
 Multiplicity           Mult            ....    1
 Number of Electrons    NEL             ....   18
FINAL SINGLE POINT ENERGY      -151.628763394131
FINAL SINGLE POINT ENERGY      -151.628865814611
FINAL SINGLE POINT ENERGY      -151.628893308467
FINAL SINGLE POINT ENERGY      -151.628899048388
FINAL SINGLE POINT ENERGY      -151.628899750240
                    ***********************HURRAY********************

CARTESIAN COORDINATES (ANGSTROEM)
---------------------------------
  O     -0.734445   -0.067401   -0.001196
  O      0.734445   -0.048510   -0.046814
  H     -0.926325    0.717698   -0.551866
  H      0.926317    0.117275    0.897713

 Multiplicity           Mult            ....    1
 Number of Electrons    NEL             ....   18
 Basis Dimension        Dim             ....   74

ORBITAL ENERGIES
----------------

  NO   OCC          E(Eh)            E(eV)
   0   2.0000     -18.827507      -512.3225
   1   2.0000     -18.827483      -512.3219
   2   2.0000      -1.027654       -27.9639
   3   2.0000      -0.826372       -22.4867
   4   2.0000      -0.487411       -13.2631
   5   2.0000      -0.441717       -12.0197
   6   2.0000      -0.376218       -10.2374
   7   2.0000      -0.278739        -7.5849
   8   2.0000      -0.236021        -6.4225
   9   0.0000      -0.052479        -1.4280
  10   0.0000       0.005420         0.1475
  11   0.0000       0.048348         1.3156
  12   0.0000       0.342251         9.3131
  13   0.0000       0.348128         9.4730

MULLIKEN ATOMIC CHARGES
-----------------------
   0 O :   -0.322411
   1 O :   -0.322410
   2 H :    0.322411
   3 H :    0.322411
Sum of atomic charges:   -0.0000000

LOEWDIN ATOMIC CHARGES
----------------------
   0 O :   -0.162188
   1 O :   -0.162187
   2 H :    0.162188
   3 H :    0.162187

  Mayer bond orders larger than 0.1
B(  0-O ,  1-O ) :   0.9203 B(  0-O ,  2-H ) :   0.9000 B(  1-O ,  3-H ) :   0.9000

FINAL SINGLE POINT ENERGY      -151.628899752615

DIPOLE MOMENT
-------------
                                X             Y             Z
Electronic contribution:      0.00000      -0.18922      -0.07837
Nuclear contribution   :     -0.00001       0.83839       0.34726
                        -----------------------------------------
Total Dipole Moment    :     -0.00000       0.64917       0.26889
                        -----------------------------------------
Magnitude (a.u.)       :      0.70266
Magnitude (Debye)      :      1.78601

VIBRATIONAL FREQUENCIES
-----------------------

   0:         0.00 cm**-1
   1:         0.00 cm**-1
   2:         0.00 cm**-1
   3:         0.00 cm**-1
   4:         0.00 cm**-1
   5:         0.00 cm**-1
   6:       366.98 cm**-1
   7:       896.15 cm**-1
   8:      1262.78 cm**-1
   9:      1384.99 cm**-1
  10:      3621.32 cm**-1
  11:      3621.53 cm**-1

IR SPECTRUM
-----------

 Mode    freq (cm**-1)   T**2         TX         TY         TZ
-------------------------------------------------------------------
   6:       366.98  181.505110  ( -0.000047 -12.446850  -5.155680)
   7:       896.15    1.210056  (  0.000170  -1.016294  -0.420953)
   8:      1262.78   93.903483  ( -9.679787  -0.173356   0.418514)
   9:      1384.99    0.271825  ( -0.000668   0.481720   0.199425)
  10:      3621.32   33.797192  ( -3.243041   1.794907  -4.478637)
  11:      3621.53    7.146598  ( -0.067433   2.505655   0.929379)

--------------------------
THERMOCHEMISTRY AT 298.15K
--------------------------

Temperature         ... 298.15 K
Pressure            ... 1.00 atm
Total Mass          ... 34.01 AMU

Throughout the following assumptions are being made:
  (1) The electronic state is orbitally nondegenerate
  (2) There are no thermally accessible electronically excited states
  (3) Hindered rotations indicated by low frequency modes are not
      treated as such but are treated as vibrations and this may
      cause some error
  (4) All equations used are the standard statistical mechanics
      equations for an ideal gas
  (5) All vibrations are strictly harmonic

freq.     366.98  E(vib)   ...       0.22
freq.     896.15  E(vib)   ...       0.03
freq.    1262.78  E(vib)   ...       0.01
freq.    1384.99  E(vib)   ...       0.00
freq.    3621.32  E(vib)   ...       0.00
freq.    3621.53  E(vib)   ...       0.00

------------
INNER ENERGY
------------

The inner energy is: U= E(el) + E(ZPE) + E(vib) + E(rot) + E(trans)
    E(el)   - is the total energy from the electronic structure calculation
              = E(kin-el) + E(nuc-el) + E(el-el) + E(nuc-nuc)
    E(ZPE)  - the the zero temperature vibrational energy from the frequency calculation
    E(vib)  - the the finite temperature correction to E(ZPE) due to population
              of excited vibrational states
    E(rot)  - is the rotational thermal energy
    E(trans)- is the translational thermal energy

Summary of contributions to the inner energy U:
Electronic energy                ...   -151.62889975 Eh
Zero point energy                ...      0.02541009 Eh      15.95 kcal/mol
Thermal vibrational correction   ...      0.00041864 Eh       0.26 kcal/mol
Thermal rotational correction    ...      0.00141627 Eh       0.89 kcal/mol
Thermal translational correction ...      0.00141627 Eh       0.89 kcal/mol
-----------------------------------------------------------------------
Total thermal energy                   -151.60023848 Eh

Summary of corrections to the electronic energy:
(perhaps to be used in another calculation)
Total thermal correction                  0.00325118 Eh       2.04 kcal/mol
Non-thermal (ZPE) correction              0.02541009 Eh      15.95 kcal/mol
-----------------------------------------------------------------------
Total correction                          0.02866127 Eh      17.99 kcal/mol

--------
ENTHALPY
--------

The enthalpy is H = U + kB*T
                kB is Boltzmann's constant
Total free energy                 ...   -151.60023848 Eh
Thermal Enthalpy correction       ...      0.00094421 Eh       0.59 kcal/mol
-----------------------------------------------------------------------
Total Enthalpy                    ...   -151.59929427 Eh

Vibrational entropy computed according to the QRRHO of S. Grimme
Chem.Eur.J. 2012 18 9955

-------
ENTROPY
-------

The entropy contributions are T*S = T*(S(el)+S(vib)+S(rot)+S(trans)
     S(el)   - electronic entropy
     S(vib)  - vibrational entropy
     S(rot)  - rotational entropy
     S(trans)- translational entropy
The entropies will be listed as mutliplied by the temperature to get
units of energy

Electronic entropy                ...      0.00000000 Eh      0.00 kcal/mol
Vibrational entropy               ...      0.00061195 Eh      0.38 kcal/mol
Rotational entropy                ...      0.00755173 Eh      4.74 kcal/mol
Translational entropy             ...      0.01734394 Eh     10.88 kcal/mol
-----------------------------------------------------------------------
Final entropy term                ...      0.02550762 Eh     16.01 kcal/mol

CAUTION: The rotational entropy is not quite correctly treated here
         because it includes a symmetry number that is not yet correctly
         implemented in ORCA!
For a nonlinear molecule the correct rotational entropy is:
    S(rot) = R*(ln(qrot/sn)+1.5)
    R    = 8.31441 J/mol/K = 1.987191683e-3 kcal/mol/K
    qrot = 1991.8034958
    sn is the rotational symmetry number. We have assumed 3 here
       if it is different for your molecule then you should correct
       the printed rotational entropy by manually evaluating the equation
       as given above

For convenience we print out the resulting values for sn=1 - 12:
 sn= 1  qrot/sn=    1991.8035 T*S(rot)=     5.39 kcal/mol T*S(tot)=    16.66 kcal/mol
 sn= 2  qrot/sn=     995.9017 T*S(rot)=     4.98 kcal/mol T*S(tot)=    16.25 kcal/mol
 sn= 3  qrot/sn=     663.9345 T*S(rot)=     4.74 kcal/mol T*S(tot)=    16.01 kcal/mol
 sn= 4  qrot/sn=     497.9509 T*S(rot)=     4.57 kcal/mol T*S(tot)=    15.84 kcal/mol
 sn= 5  qrot/sn=     398.3607 T*S(rot)=     4.44 kcal/mol T*S(tot)=    15.70 kcal/mol
 sn= 6  qrot/sn=     331.9672 T*S(rot)=     4.33 kcal/mol T*S(tot)=    15.60 kcal/mol
 sn= 7  qrot/sn=     284.5434 T*S(rot)=     4.24 kcal/mol T*S(tot)=    15.50 kcal/mol
 sn= 8  qrot/sn=     248.9754 T*S(rot)=     4.16 kcal/mol T*S(tot)=    15.43 kcal/mol
 sn= 9  qrot/sn=     221.3115 T*S(rot)=     4.09 kcal/mol T*S(tot)=    15.36 kcal/mol
 sn=10  qrot/sn=     199.1803 T*S(rot)=     4.03 kcal/mol T*S(tot)=    15.29 kcal/mol
 sn=11  qrot/sn=     181.0730 T*S(rot)=     3.97 kcal/mol T*S(tot)=    15.24 kcal/mol
 sn=12  qrot/sn=     165.9836 T*S(rot)=     3.92 kcal/mol T*S(tot)=    15.18 kcal/mol

-------------------
GIBBS FREE ENTHALPY
-------------------

The Gibbs free enthalpy is G = H - T*S

Total enthalpy                    ...   -151.59929427 Eh
Total entropy correction          ...     -0.02550762 Eh    -16.01 kcal/mol
-----------------------------------------------------------------------
Final Gibbs free enthalpy         ...   -151.62480188 Eh

For completeness - the Gibbs free enthalpy minus the electronic energy
G-E(el)                           ...      0.00409787 Eh      2.57 kcal/mol

                             ****ORCA TERMINATED NORMALLY****
TOTAL RUN TIME: 0 days 0 hours 0 minutes 44 seconds 368 msec
