 Output coordinates in angstroms (scale by  1.889725989 to convert to a.u.)

  No.       Tag          Charge          X              Y              Z
 ---- ---------------- ---------- -------------- -------------- --------------
    1 O                    8.0000     0.95172747     3.32279189    -0.25956895
    2 C                    6.0000    -0.28097481     2.89743325    -0.04421389
    3 O                    8.0000    -1.25858729     3.57743227     0.04203572
    4 C                    6.0000    -0.35756294     1.41611458     0.09054038
    5 C                    6.0000     0.70611776     0.60956928     0.01132328
    6 C                    6.0000     0.57540216    -0.80864391     0.15537428
    7 O                    8.0000     1.58153561    -1.54370901     0.08192750
    8 C                    6.0000    -0.70070266    -1.59422558     0.41600757
    9 N                    7.0000    -0.29687402    -2.98274354     0.38188836
   10 C                    6.0000    -0.75451948    -3.79697062    -0.75704734
   11 H                    1.0000     0.04336327    -3.92465027    -1.48295285
   12 H                    1.0000    -1.61002001    -3.34088157    -1.24880168
   13 H                    1.0000    -1.05366235    -4.77663294    -0.40139514
   14 H                    1.0000    -0.47470286    -3.44453649     1.25953367
   15 H                    1.0000    -1.09558924    -1.30639186     1.38996018
   16 H                    1.0000    -1.45510230    -1.35336147    -0.33135998
   17 H                    1.0000    -1.36176467     1.05550941     0.26151495
   18 H                    1.0000     1.69943925     0.99713670    -0.15959030
   19 H                    1.0000     0.93975338     4.28572552    -0.33731858
   20 H                    1.0000     1.12243719    -2.50449543     0.23013142

         Total SCF energy =   -505.292740079951

 Vector   13  Occ=2.000000D+00  E=-1.443420D+00

 Vector   14  Occ=2.000000D+00  E=-1.394867D+00

 Vector   15  Occ=2.000000D+00  E=-1.255913D+00

 Vector   16  Occ=2.000000D+00  E=-1.162765D+00

 Vector   17  Occ=2.000000D+00  E=-1.085475D+00

 Vector   18  Occ=2.000000D+00  E=-1.034162D+00

 Vector   19  Occ=2.000000D+00  E=-9.454680D-01

 Vector   20  Occ=2.000000D+00  E=-9.179146D-01

 Vector   21  Occ=2.000000D+00  E=-8.962779D-01

 Vector   22  Occ=2.000000D+00  E=-8.618483D-01

 Vector   23  Occ=2.000000D+00  E=-8.277964D-01

 Vector   24  Occ=2.000000D+00  E=-7.896537D-01

 Vector   25  Occ=2.000000D+00  E=-7.797883D-01

 Vector   26  Occ=2.000000D+00  E=-7.461469D-01

 Vector   27  Occ=2.000000D+00  E=-7.361003D-01

 Vector   28  Occ=2.000000D+00  E=-7.335484D-01

 Vector   29  Occ=2.000000D+00  E=-7.109742D-01

 Vector   30  Occ=2.000000D+00  E=-7.097109D-01

 Vector   31  Occ=2.000000D+00  E=-6.873949D-01

 Vector   32  Occ=2.000000D+00  E=-6.845488D-01

 Vector   33  Occ=2.000000D+00  E=-6.530099D-01

 Vector   34  Occ=2.000000D+00  E=-6.099263D-01

 Vector   35  Occ=2.000000D+00  E=-5.583245D-01

 Vector   36  Occ=2.000000D+00  E=-5.423457D-01

 Vector   37  Occ=2.000000D+00  E=-5.052693D-01

 Vector   38  Occ=2.000000D+00  E=-4.907960D-01

 Vector   39  Occ=0.000000D+00  E=-6.049611D-02

 Vector   40  Occ=0.000000D+00  E= 1.213393D-01

 Vector   41  Occ=0.000000D+00  E= 2.507631D-01

 Vector   42  Occ=0.000000D+00  E= 3.346867D-01

 Vector   43  Occ=0.000000D+00  E= 3.528772D-01

 Vector   44  Occ=0.000000D+00  E= 3.800547D-01

 Vector   45  Occ=0.000000D+00  E= 3.981744D-01

 Vector   46  Occ=0.000000D+00  E= 4.128620D-01

 Vector   47  Occ=0.000000D+00  E= 4.271995D-01

 Vector   48  Occ=0.000000D+00  E= 4.471683D-01

 Vector   49  Occ=0.000000D+00  E= 5.046462D-01

       Multipole analysis of the density wrt the origin
       ------------------------------------------------

     L   x y z        total         open         nuclear
     -   - - -        -----         ----         -------
     0   0 0 0      1.000000      0.000000     77.000000

     1   1 0 0     -0.277871      0.000000      0.000000
     1   0 1 0     -2.149988      0.000000      0.000000
     1   0 0 1      0.396730      0.000000      0.000000

     2   2 0 0    -39.859004      0.000000    240.186058
     2   1 1 0      6.223877      0.000000     30.200130
     2   1 0 1     -0.089386      0.000000      0.110628
     2   0 2 0    -14.171206      0.000000   1906.564347
     2   0 1 1     -2.412402      0.000000      7.756829

 Zero-Point correction to Energy  =  118.240 kcal/mol  (  0.188427 au)
 Thermal correction to Energy     =  123.135 kcal/mol  (  0.196228 au)
 Thermal correction to Enthalpy   =  123.727 kcal/mol  (  0.197172 au)
 Total Entropy                    =   91.463 cal/mol-K
   - Translational                =   40.788 cal/mol-K (mol. weight = 144.0660)
   - Rotational                   =   30.314 cal/mol-K (symmetry #  =        1)
   - Vibrational                  =   20.362 cal/mol-K
   - Translational                  =    2.979 cal/mol-K
   - Rotational                     =    2.979 cal/mol-K
   - Vibrational                    =   20.894 cal/mol-K
 P.Frequency     -317.63     -284.53     -185.76     -153.35     -114.97        0.00
 P.Frequency        0.00        0.00        0.00        0.00        0.00       29.45
 P.Frequency      127.51      147.39      208.84      222.78      407.78      459.39
 P.Frequency      472.24      536.39      599.49      658.07      750.17      844.99
 P.Frequency     1010.60     1036.41     1090.44     1106.21     1158.09     1170.79
 P.Frequency     1316.37     1339.95     1381.11     1401.71     1445.57     1453.10
 P.Frequency     1461.75     1476.98     1581.37     1601.48     1682.61     1694.68
 P.Frequency     1730.89     1744.09     1775.50     1789.85     1801.67     1934.08
 P.Frequency     2002.42     2267.35     2941.38     3602.58     3630.18     3733.01
 P.Frequency     3766.75     3769.67     3789.68     3791.11     4274.59     4531.01

 Normal Eigenvalue ||           Projected Infra Red Intensities
  Mode   [cm**-1]  || [atomic units] [(debye/angs)**2] [(KM/mol)] [arbitrary]
 ------ ---------- || -------------- ----------------- ---------- -----------
    1     -317.634 ||    0.040584           0.936        39.564       4.433
    2     -284.531 ||    0.018060           0.417        17.606       1.973
    3     -185.757 ||    0.022843           0.527        22.269       2.495
    4     -153.348 ||    0.001746           0.040         1.702       0.191
    5     -114.971 ||    0.037975           0.876        37.020       4.148
    6        0.000 ||    0.007005           0.162         6.828       0.765
    7        0.000 ||    0.006289           0.145         6.131       0.687
    8        0.000 ||    0.001004           0.023         0.979       0.110
    9        0.000 ||    0.001893           0.044         1.845       0.207
   10        0.000 ||    0.004978           0.115         4.853       0.544
   11        0.000 ||    0.003151           0.073         3.071       0.344
   12       29.449 ||    0.037489           0.865        36.546       4.095
   13      127.513 ||    0.140247           3.236       136.720      15.320
   14      147.391 ||    0.053847           1.242        52.493       5.882
   15      208.845 ||    0.002041           0.047         1.989       0.223
   16      222.776 ||    0.249117           5.747       242.851      27.213
   17      407.782 ||    0.019956           0.460        19.454       2.180
   18      459.388 ||    0.022076           0.509        21.521       2.412
   19      472.236 ||    0.005910           0.136         5.761       0.646
   20      536.394 ||    0.011570           0.267        11.279       1.264
   21      599.490 ||    0.040482           0.934        39.464       4.422
   22      658.071 ||    0.016450           0.380        16.036       1.797
   23      750.169 ||    0.049097           1.133        47.862       5.363
   24      844.987 ||    0.050992           1.176        49.709       5.570
   25     1010.596 ||    0.005220           0.120         5.089       0.570
   26     1036.414 ||    0.008341           0.192         8.132       0.911
   27     1090.439 ||    0.067701           1.562        65.998       7.396
   28     1106.212 ||    0.011447           0.264        11.159       1.250
   29     1158.094 ||    0.023087           0.533        22.506       2.522
   30     1170.793 ||    0.018882           0.436        18.407       2.063
   31     1316.372 ||    0.041606           0.960        40.560       4.545
   32     1339.945 ||    0.010270           0.237        10.011       1.122
   33     1381.114 ||    0.096102           2.217        93.685      10.498
   34     1401.709 ||    0.098074           2.263        95.607      10.713
   35     1445.573 ||    0.040255           0.929        39.243       4.397
   36     1453.097 ||    0.043211           0.997        42.124       4.720
   37     1461.748 ||    0.111829           2.580       109.016      12.216
   38     1476.975 ||    0.006227           0.144         6.070       0.680
   39     1581.372 ||    0.107151           2.472       104.456      11.705
   40     1601.484 ||    0.664375          15.328       647.666      72.575
   41     1682.610 ||    0.138838           3.203       135.346      15.167
   42     1694.681 ||    0.342311           7.897       333.702      37.394
   43     1730.890 ||    0.180863           4.173       176.314      19.757
   44     1744.089 ||    0.033691           0.777        32.844       3.680
   45     1775.504 ||    0.244892           5.650       238.733      26.752
   46     1789.850 ||    0.060579           1.398        59.055       6.618
   47     1801.674 ||    0.047100           1.087        45.915       5.145
   48     1934.078 ||    0.186494           4.303       181.803      20.372
   49     2002.424 ||    0.390367           9.006       380.549      42.643
   50     2267.352 ||    0.076944           1.775        75.009       8.405
   51     2941.380 ||    1.399752          32.293      1364.548     152.907
   52     3602.585 ||    0.000583           0.013         0.569       0.064
   53     3630.185 ||    0.014565           0.336        14.198       1.591
   54     3733.014 ||    0.019406           0.448        18.918       2.120
   55     3766.749 ||    0.088048           2.031        85.834       9.618
   56     3769.670 ||    0.003122           0.072         3.043       0.341
   57     3789.677 ||    0.005305           0.122         5.171       0.579
   58     3791.112 ||    0.006858           0.158         6.685       0.749
   59     4274.595 ||    0.038107           0.879        37.149       4.163
   60     4531.013 ||    0.016156           0.373        15.750       1.765
 ----------------------------------------------------------------------------

 Total times  cpu:       89.2s     wall:       89.4s
