 Gaussian 09, Revision A.02,
 Gaussian 09:  AM64L-G09RevA.02 11-Jun-2009

 --------------------
 #P B3LYP STO-3G FREQ
 --------------------

 ----------
 fluor atom
 ----------
 Symbolic Z-matrix:
 Charge =  0 Multiplicity = 2

                         Standard orientation:
 ---------------------------------------------------------------------
 Center     Atomic      Atomic             Coordinates (Angstroms)
 Number     Number       Type             X           Y           Z
 ---------------------------------------------------------------------
      1          9           0        0.000000    0.000000    0.000000
 ---------------------------------------------------------------------

 SCF Done:  E(UB3LYP) =  -98.2689830901     A.U. after    3 cycles

 Unable to determine electronic state:  partially filled degenerate orbitals.
 Alpha  occ. eigenvalues --  -24.35796  -1.04593  -0.31568  -0.21503  -0.21503
  Beta  occ. eigenvalues --  -24.33916  -0.95291  -0.18005  -0.18005
  Beta virt. eigenvalues --    0.00226

 Mulliken atomic charges:
              1
     1  F    0.000000
 Sum of Mulliken atomic charges =   0.00000

 Dipole moment (field-independent basis, Debye):
    X=              0.0000    Y=              0.0000    Z=              0.0000  Tot=              0.0000
 Quadrupole moment (field-independent basis, Debye-Ang):
   XX=             -3.9147   YY=             -3.2925   ZZ=             -3.9147
   XY=              0.0000   XZ=              0.0000   YZ=              0.0000

  Exact polarizability:   0.000   0.000   0.676   0.000   0.000   0.000
 Approx polarizability:   0.000   0.000   0.681   0.000   0.000   0.000

 - Thermochemistry -
 -------------------
 Temperature   298.150 Kelvin.  Pressure   1.00000 Atm.
 Atom     1 has atomic number  9 and mass  18.99840
 Molecular mass:    18.99840 amu.
 Zero-point vibrational energy          0.0 (Joules/Mol)
                                    0.00000 (Kcal/Mol)
 Vibrational temperatures:
          (Kelvin)

 Zero-point correction=                           0.000000 (Hartree/Particle)
 Thermal correction to Energy=                    0.001416
 Thermal correction to Enthalpy=                  0.002360
 Thermal correction to Gibbs Free Energy=        -0.014813
 Sum of electronic and zero-point Energies=            -98.268983
 Sum of electronic and thermal Energies=               -98.267567
 Sum of electronic and thermal Enthalpies=             -98.266623
 Sum of electronic and thermal Free Energies=          -98.283796

                     E (Thermal)             CV                S
                      KCal/Mol        Cal/Mol-Kelvin    Cal/Mol-Kelvin
 Total                    0.889              2.981             36.145
 Electronic               0.000              0.000              1.377
 Translational            0.889              2.981             34.767
 Rotational               0.000              0.000              0.000
 Vibrational              0.000              0.000              0.000

 Optimization completed.
    -- Stationary point found.
 Normal termination of Gaussian 09 at Mon Aug 29 15:52:11 2011.
