 Gaussian 03, Revision C.02,
 Gaussian 03:  AM64L-G03RevC.02 12-Jun-2004

 -----------------------------------------------------
 #P MP2 6-31G** iop(6/7=3) gfinput pop=full # opt freq
 -----------------------------------------------------

 ---
 job
 ---
 Symbolic Z-matrix:
 Charge =  0 Multiplicity = 1

 SCF Done:  E(RHF) =  -40.2017028490     A.U. after    8 cycles
 E2 =    -0.1629029271D+00 EUMP2 =    -0.40364605776125D+02
 SCF Done:  E(RHF) =  -40.2016932561     A.U. after    7 cycles
 E2 =    -0.1629325877D+00 EUMP2 =    -0.40364625843793D+02
 Optimization completed.
    -- Stationary point found.
 Normal termination of Gaussian 03 at Wed Apr 10 02:54:56 2013.

 ----------------------------------------------------------------------
 #P Geom=AllCheck Guess=Read SCRF=Check Test GenChk RMP2(FC)/6-31G(d,p)
  Freq
 ----------------------------------------------------------------------

 job
 ---
 Redundant internal coordinates taken from checkpoint file:
 /local/run/antares-adm.114825.0/Gau-23029.chk
 Charge =  0 Multiplicity = 1

                         Standard orientation:
 ---------------------------------------------------------------------
 Center     Atomic     Atomic              Coordinates (Angstroms)
 Number     Number      Type              X           Y           Z
 ---------------------------------------------------------------------
    1          6             0        0.000000    0.000000    0.000003
    2          1             0        0.000000    0.000000   -1.085595
    3          1             0        0.000000    1.023509    0.361859
    4          1             0       -0.886385   -0.511755    0.361859
    5          1             0        0.886385   -0.511755    0.361859
 ---------------------------------------------------------------------

 SCF Done:  E(RHF) =  -40.2016932561     A.U. after    1 cycles
 E2 =    -0.1629325877D+00 EUMP2 =    -0.40364625843814D+02

 The electronic state is 1-A1.
 Alpha  occ. eigenvalues --  -11.20685  -0.94375  -0.54432  -0.54432  -0.54431
 Alpha virt. eigenvalues --    0.25662   0.32726   0.32726   0.32726   0.72643
 Alpha virt. eigenvalues --    0.72643   0.72643   1.14333   1.14334   1.14334
 Alpha virt. eigenvalues --    1.21113   1.31530   1.62957   1.62957   2.35310

 Mulliken atomic charges:
              1
     1  C   -0.472888
     2  H    0.118220
     3  H    0.118222
     4  H    0.118222
     5  H    0.118222
 Sum of Mulliken charges=   0.00000

 Dipole moment (field-independent basis, Debye):
    X=     0.0000    Y=     0.0000    Z=     0.0000  Tot=     0.0000
 Quadrupole moment (field-independent basis, Debye-Ang):
   XX=    -8.3649   YY=    -8.3649   ZZ=    -8.3649
   XY=     0.0000   XZ=     0.0000   YZ=     0.0000

  Exact polarizability:  12.354   0.000  12.354   0.000   0.000  12.354
 Approx polarizability:   9.997   0.000   9.997   0.000   0.000   9.997

                     1                      2                      3
                    A1                      E                      E
 Frequencies --  1404.8569              1404.8702              1404.8702
 Red. masses --     1.1782                 1.1782                 1.1782
 Frc consts  --     1.3701                 1.3701                 1.3701
 IR Inten    --    11.5163                11.5156                11.5156

                     4                      5                      6
                     E                      E                     A1
 Frequencies --  1624.2367              1624.2367              3131.2532
 Red. masses --     1.0078                 1.0078                 1.0078
 Frc consts  --     1.5665                 1.5665                 5.8220
 IR Inten    --     0.0000                 0.0000                 0.0000

                     7                      8                      9
                    A1                      E                      E
 Frequencies --  3277.0520              3277.0915              3277.0915
 Red. masses --     1.1023                 1.1023                 1.1023
 Frc consts  --     6.9746                 6.9748                 6.9748
 IR Inten    --    21.3356                21.3335                21.3335

 - Thermochemistry -
 -------------------
 Temperature   298.150 Kelvin.  Pressure   1.00000 Atm.
 Atom  1 has atomic number  6 and mass  12.00000

 Molecular mass:    16.03130 amu.
 Principal axes and moments of inertia in atomic units:
                           1         2         3
     EIGENVALUES --    11.31060  11.31060  11.31066
           X            0.11532   0.99333   0.00000
           Y            0.99333  -0.11532   0.00000
           Z            0.00000   0.00000   1.00000
 This molecule is an oblate symmetric top.
 Rotational symmetry number  3.
 Rotational temperatures (Kelvin)      7.65776     7.65776     7.65772
 Rotational constants (GHZ):         159.56196   159.56196   159.56116
 Zero-point vibrational energy     122172.0 (Joules/Mol)
                                   29.19980 (Kcal/Mol)
 Vibrational temperatures:   2021.27  2021.29  2021.29  2336.91  2336.91
          (Kelvin)           4505.17  4714.94  4715.00  4715.00

 Zero-point correction=                           0.046533 (Hartree/Particle)
 Thermal correction to Energy=                    0.049393
 Thermal correction to Enthalpy=                  0.050337
 Thermal correction to Gibbs Free Energy=         0.027921
 Sum of electronic and zero-point Energies=            -40.318093
 Sum of electronic and thermal Energies=               -40.315233
 Sum of electronic and thermal Enthalpies=             -40.314289
 Sum of electronic and thermal Free Energies=          -40.336705

                     E (Thermal)             CV                S
                      KCal/Mol        Cal/Mol-Kelvin    Cal/Mol-Kelvin
 Total                   30.995              6.371             47.178
 Electronic               0.000              0.000              0.000
 Translational            0.889              2.981             34.261
 Rotational               0.889              2.981             12.850
 Vibrational             29.217              0.409              0.067

 Optimization completed.
    -- Stationary point found.
 Normal termination of Gaussian 03 at Wed Apr 10 02:55:00 2013.
