 Gaussian 09, Revision A.02,
 Gaussian 09:  AM64L-G09RevA.02 11-Jun-2009

 ------------------------
 #P B3LYP STO-3G OPT FREQ
 ------------------------

 ---------
 essai hcn
 ---------
 Symbolic Z-matrix:
 Charge =  0 Multiplicity = 1

 SCF Done:  E(RB3LYP) =  -92.2034473834     A.U. after    9 cycles

 ------------------------------------------------------------------
 #P Geom=AllCheck Guess=TCheck SCRF=Check GenChk RB3LYP/STO-3G Freq
 ------------------------------------------------------------------

 essai hcn
 ---------
 Redundant internal coordinates taken from checkpoint file:
 /scratch/pbs.30974.clovis0/Gau-1165.chk
 Charge =  0 Multiplicity = 1

                         Standard orientation:
 ---------------------------------------------------------------------
 Center     Atomic      Atomic             Coordinates (Angstroms)
 Number     Number       Type             X           Y           Z
 ---------------------------------------------------------------------
      1          6           0        0.000000    0.000000   -0.518698
      2          7           0        0.000000    0.000000    0.674157
      3          1           0        0.000000    0.000000   -1.606907
 ---------------------------------------------------------------------

 SCF Done:  E(RB3LYP) =  -92.2050538216     A.U. after    1 cycles

 The electronic state is 1-SG.
 Alpha  occ. eigenvalues --  -14.17024 -10.04640  -0.87347  -0.56084  -0.30424
 Alpha  occ. eigenvalues --   -0.29830  -0.29830
 Alpha virt. eigenvalues --    0.11192   0.11192   0.28172   0.88704

 Mulliken atomic charges:
              1
     1  C    0.001451
     2  N   -0.153014
     3  H    0.151563
 Sum of Mulliken atomic charges =   0.00000

 Dipole moment (field-independent basis, Debye):
    X=              0.0000    Y=              0.0000    Z=             -2.3115  Tot=              2.3115
 Quadrupole moment (field-independent basis, Debye-Ang):
   XX=            -10.4421   YY=            -10.4421   ZZ=             -9.4742
   XY=              0.0000   XZ=              0.0000   YZ=              0.0000

  Exact polarizability:   2.996   0.000   2.996   0.000   0.000  12.410
 Approx polarizability:   3.549   0.000   3.549   0.000   0.000  34.595

                     1                      2                      3
                    PI                     PI                     SG
 Frequencies --   793.0198               793.0198              2203.2984
 Red. masses --     1.3374                 1.3374                 5.2467
 Frc consts  --     0.4956                 0.4956                15.0066
 IR Inten    --    28.5005                28.5005                 0.4122

                     4
                    SG
 Frequencies --  3616.0389
 Red. masses --     1.1830
 Frc consts  --     9.1137
 IR Inten    --   120.3852

 - Thermochemistry -
 -------------------
 Temperature   298.150 Kelvin.  Pressure   1.00000 Atm.
 Atom     1 has atomic number  6 and mass  12.00000

 Molecular mass:    27.01090 amu.
 Principal axes and moments of inertia in atomic units:
                           1         2         3
     Eigenvalues --     0.00000  43.21272  43.21272
           X            0.00000   0.00000   1.00000
           Y            0.00000   1.00000   0.00000
           Z            1.00000   0.00000   0.00000
 This molecule is a prolate symmetric top.
 Rotational symmetry number  1.
 Rotational temperature (Kelvin)      2.00436
 Rotational constant (GHZ):          41.764115
 Zero-point vibrational energy      44294.0 (Joules/Mol)
                                   10.58652 (Kcal/Mol)
 Vibrational temperatures:   1140.98  1140.98  3170.05  5202.67
          (Kelvin)

 Zero-point correction=                           0.016871 (Hartree/Particle)
 Thermal correction to Energy=                    0.019392
 Thermal correction to Enthalpy=                  0.020336
 Thermal correction to Gibbs Free Energy=        -0.002551
 Sum of electronic and zero-point Energies=            -92.188183
 Sum of electronic and thermal Energies=               -92.185662
 Sum of electronic and thermal Enthalpies=             -92.184717
 Sum of electronic and thermal Free Energies=          -92.207605

                     E (Thermal)             CV                S
                      KCal/Mol        Cal/Mol-Kelvin    Cal/Mol-Kelvin
 Total                   12.169              6.298             48.171
 Electronic               0.000              0.000              0.000
 Translational            0.889              2.981             35.816
 Rotational               0.592              1.987             11.928
 Vibrational             10.688              1.330              0.427

 Optimization completed.
    -- Stationary point found.
 Normal termination of Gaussian 09 at Thu Aug 25 17:16:14 2011.
