 Gaussian 09, Revision A.02,
 Gaussian 09:  AM64L-G09RevA.02 11-Jun-2009

 --------------------------------------------------
 #P M06 6-311G** FREQ # GFINPUT IOP(6/7=3) POP=FULL
 --------------------------------------------------

 ---------------------
 RC, from TS reverse 5
 ---------------------
 Symbolic Z-matrix:
 Charge =  0 Multiplicity = 2

                         Standard orientation:
 ---------------------------------------------------------------------
 Center     Atomic      Atomic             Coordinates (Angstroms)
 Number     Number       Type             X           Y           Z
 ---------------------------------------------------------------------
      1          7           0        0.200752   -0.103756    0.008874
      2          7           0        1.310899    0.112565    0.019176
      3          7           0       -1.028067   -0.106072   -0.126239
      4          1           0       -1.470804   -0.782773    0.493400
      5          1           0       -1.914282    1.463615    0.193919
 ---------------------------------------------------------------------

 SCF Done:  E(UM06) =  -165.223587574     A.U. after   20 cycles

 The electronic state is 2-A.
 Alpha  occ. eigenvalues --  -14.57206 -14.47242 -14.45320  -1.17693  -1.00947
 Alpha  occ. eigenvalues --   -0.65404  -0.55753  -0.54647  -0.48113  -0.38390
 Alpha  occ. eigenvalues --   -0.32192  -0.22844
 Alpha virt. eigenvalues --   -0.03694   0.00792   0.03801   0.22521   0.25822
 Alpha virt. eigenvalues --    0.36625   0.41968   0.45486   0.50125   0.52733
 Alpha virt. eigenvalues --    0.60336   0.64547   0.67517   0.68890   0.74273

  Beta  occ. eigenvalues --  -14.57192 -14.46995 -14.45179  -1.17260  -1.00501
  Beta  occ. eigenvalues --   -0.65258  -0.54780  -0.54478  -0.47375  -0.36376
  Beta  occ. eigenvalues --   -0.31119
  Beta virt. eigenvalues --   -0.06428  -0.02474   0.02092   0.05028   0.22932
  Beta virt. eigenvalues --    0.36350   0.39427   0.41840   0.45642   0.50137
  Beta virt. eigenvalues --    0.53765   0.60544   0.65078   0.67817   0.68916

 Mulliken atomic charges:
              1
     1  N    0.231281
     2  N   -0.126721
     3  N   -0.324219
     4  H    0.264879
     5  H   -0.045221
 Sum of Mulliken atomic charges =  -0.00000

 Dipole moment (field-independent basis, Debye):
    X=             -0.6324    Y=             -1.7397    Z=              1.0079  Tot=              2.1077
 Quadrupole moment (field-independent basis, Debye-Ang):
   XX=            -20.8810   YY=            -17.9379   ZZ=            -17.7440
   XY=              2.6334   XZ=             -1.6181   YZ=             -1.1374

  Exact polarizability:  48.244  -5.874  21.091  -1.198   0.139  11.448
 Approx polarizability:  97.604  -2.889  24.396   1.228  -0.266  14.796

 ******    1 imaginary frequencies (negative Signs) ******

                     1                      2                      3
                     A                      A                      A
 Frequencies --  -552.7483               199.2227               350.0051
 Red. masses --     1.1652                 1.2043                 1.2372
 Frc consts  --     0.2097                 0.0282                 0.0893
 IR Inten    --     6.0987                 6.9959                70.7965

                     4                      5                      6
                     A                      A                      A
 Frequencies --   563.4969               631.6918              1167.8977
 Red. masses --     4.8885                 3.6036                 1.6667
 Frc consts  --     0.9145                 0.8472                 1.3394
 IR Inten    --    12.5553                15.8144               165.0978

                     7                      8                      9
                     A                      A                      A
 Frequencies --  1294.5290              2287.6020              3519.1610
 Red. masses --     3.2367                12.2160                 1.0761
 Frc consts  --     3.1957                37.6651                 7.8524
 IR Inten    --     1.6678               428.9861                58.9421

 - Thermochemistry -
 -------------------
 Temperature   298.150 Kelvin.  Pressure   1.00000 Atm.
 Atom     1 has atomic number  7 and mass  14.00307

 Molecular mass:    44.02487 amu.
 Principal axes and moments of inertia in atomic units:
                           1         2         3
     Eigenvalues --    13.05719 162.89268 172.57853
           X            0.99886  -0.04078  -0.02492
           Y            0.04035   0.99903  -0.01764
           Z            0.02561   0.01661   0.99953
 This molecule is an asymmetric top.
 Rotational symmetry number  1.
 Rotational temperatures (Kelvin)      6.63342     0.53172     0.50188
 Rotational constants (GHZ):         138.21818    11.07933    10.45751
    1 imaginary frequencies ignored.
 Zero-point vibrational energy      59894.7 (Joules/Mol)
                                   14.31517 (Kcal/Mol)
 Warning -- explicit consideration of   3 degrees of freedom as
           vibrations may cause significant error
 Vibrational temperatures:    286.64   503.58   810.75   908.86  1680.34
          (Kelvin)           1862.54  3291.34  5063.28

 Zero-point correction=                           0.022813 (Hartree/Particle)
 Thermal correction to Energy=                    0.026924
 Thermal correction to Enthalpy=                  0.027868
 Thermal correction to Gibbs Free Energy=        -0.002294
 Sum of electronic and zero-point Energies=           -165.200775
 Sum of electronic and thermal Energies=              -165.196664
 Sum of electronic and thermal Enthalpies=            -165.195720
 Sum of electronic and thermal Free Energies=         -165.225882

                     E (Thermal)             CV                S
                      KCal/Mol        Cal/Mol-Kelvin    Cal/Mol-Kelvin
 Total                   16.895             11.835             63.481
 Electronic               0.000              0.000              1.377
 Translational            0.889              2.981             37.273
 Rotational               0.889              2.981             20.534
 Vibrational             15.117              5.873              4.297
 Vibration     1          0.637              1.841              2.140
 Vibration     2          0.727              1.575              1.166
 Vibration     3          0.919              1.110              0.517

 Normal termination of Gaussian 09 at Tue Apr 29 14:51:57 2014.
