 Gaussian 09, Revision A.02,
 Gaussian 09:  AM64L-G09RevA.02 11-Jun-2009

 --------------------------------------------------
 #P M06 6-311G** FREQ # GFINPUT IOP(6/7=3) POP=FULL
 --------------------------------------------------

 ---------------------
 RC, from TS reverse 6
 ---------------------
 Symbolic Z-matrix:
 Charge =  0 Multiplicity = 2

                         Standard orientation:
 ---------------------------------------------------------------------
 Center     Atomic      Atomic             Coordinates (Angstroms)
 Number     Number       Type             X           Y           Z
 ---------------------------------------------------------------------
      1          7           0        0.201062   -0.102410    0.009251
      2          7           0        1.310853    0.113992    0.019063
      3          7           0       -1.026941   -0.110527   -0.126673
      4          1           0       -1.467350   -0.785442    0.496680
      5          1           0       -1.927466    1.478055    0.191826
 ---------------------------------------------------------------------

 SCF Done:  E(UM06) =  -165.223792598     A.U. after   20 cycles

 The electronic state is 2-A.
 Alpha  occ. eigenvalues --  -14.57245 -14.47223 -14.45204  -1.17703  -1.00942
 Alpha  occ. eigenvalues --   -0.65353  -0.55693  -0.54658  -0.48087  -0.38218
 Alpha  occ. eigenvalues --   -0.32149  -0.23123
 Alpha virt. eigenvalues --   -0.03658   0.00827   0.03800   0.22584   0.25794
 Alpha virt. eigenvalues --    0.36671   0.41988   0.45487   0.50138   0.52702
 Alpha virt. eigenvalues --    0.60387   0.64533   0.67515   0.68917   0.74253

  Beta  occ. eigenvalues --  -14.57234 -14.46993 -14.45065  -1.17300  -1.00522
  Beta  occ. eigenvalues --   -0.65211  -0.54776  -0.54505  -0.47399  -0.36248
  Beta  occ. eigenvalues --   -0.31052
  Beta virt. eigenvalues --   -0.06358  -0.02485   0.02080   0.05011   0.22990
  Beta virt. eigenvalues --    0.36418   0.39709   0.41850   0.45664   0.50151
  Beta virt. eigenvalues --    0.53752   0.60584   0.65071   0.67802   0.68942

 Mulliken atomic charges:
              1
     1  N    0.232401
     2  N   -0.127394
     3  N   -0.325069
     4  H    0.264393
     5  H   -0.044330
 Sum of Mulliken atomic charges =  -0.00000

 Dipole moment (field-independent basis, Debye):
    X=             -0.6258    Y=             -1.7311    Z=              1.0191  Tot=              2.1040
 Quadrupole moment (field-independent basis, Debye-Ang):
   XX=            -20.8920   YY=            -17.9210   ZZ=            -17.7313
   XY=              2.6092   XZ=             -1.6317   YZ=             -1.1412

  Exact polarizability:  47.804  -5.473  20.787  -1.110   0.068  11.437
 Approx polarizability:  96.623  -2.018  23.917   1.370  -0.343  14.783

 ******    1 imaginary frequencies (negative Signs) ******

                     1                      2                      3
                     A                      A                      A
 Frequencies --  -485.1441               176.6907               333.5405
 Red. masses --     1.1586                 1.2049                 1.2246
 Frc consts  --     0.1607                 0.0222                 0.0803
 IR Inten    --     6.6765                 6.4670                72.4892

                     4                      5                      6
                     A                      A                      A
 Frequencies --   562.3353               629.6935              1167.0390
 Red. masses --     4.8489                 3.7788                 1.6407
 Frc consts  --     0.9034                 0.8828                 1.3166
 IR Inten    --    13.9034                14.5915               170.6984

                     7                      8                      9
                     A                      A                      A
 Frequencies --  1296.5023              2291.3191              3517.8842
 Red. masses --     3.3920                12.2374                 1.0761
 Frc consts  --     3.3593                37.8540                 7.8463
 IR Inten    --     1.1931               427.6986                58.7575

 - Thermochemistry -
 -------------------
 Temperature   298.150 Kelvin.  Pressure   1.00000 Atm.
 Atom     1 has atomic number  7 and mass  14.00307

 Molecular mass:    44.02487 amu.
 Principal axes and moments of inertia in atomic units:
                           1         2         3
     Eigenvalues --    13.27435 162.94567 172.82138
           X            0.99881  -0.04196  -0.02491
           Y            0.04151   0.99897  -0.01827
           Z            0.02565   0.01721   0.99952
 This molecule is an asymmetric top.
 Rotational symmetry number  1.
 Rotational temperatures (Kelvin)      6.52490     0.53155     0.50118
 Rotational constants (GHZ):         135.95700    11.07572    10.44281
    1 imaginary frequencies ignored.
 Zero-point vibrational energy      59663.8 (Joules/Mol)
                                   14.25998 (Kcal/Mol)
 Warning -- explicit consideration of   3 degrees of freedom as
           vibrations may cause significant error
 Vibrational temperatures:    254.22   479.89   809.07   905.99  1679.11
          (Kelvin)           1865.38  3296.69  5061.44

 Zero-point correction=                           0.022725 (Hartree/Particle)
 Thermal correction to Energy=                    0.026892
 Thermal correction to Enthalpy=                  0.027836
 Thermal correction to Gibbs Free Energy=        -0.002479
 Sum of electronic and zero-point Energies=           -165.201068
 Sum of electronic and thermal Energies=              -165.196900
 Sum of electronic and thermal Enthalpies=            -165.195956
 Sum of electronic and thermal Free Energies=         -165.226272

                     E (Thermal)             CV                S
                      KCal/Mol        Cal/Mol-Kelvin    Cal/Mol-Kelvin
 Total                   16.875             11.905             63.804
 Electronic               0.000              0.000              1.377
 Translational            0.889              2.981             37.273
 Rotational               0.889              2.981             20.552
 Vibrational             15.098              5.943              4.602
 Vibration     1          0.628              1.871              2.363
 Vibration     2          0.715              1.609              1.243
 Vibration     3          0.918              1.113              0.519

 Normal termination of Gaussian 09 at Tue Apr 29 14:52:28 2014.
