 Gaussian 09, Revision A.02,
 Gaussian 09:  AM64L-G09RevA.02 11-Jun-2009

 --------------------------------------------------
 #P M06 6-311G** FREQ # GFINPUT IOP(6/7=3) POP=FULL
 --------------------------------------------------

 --------------------
 RC, from TS 3reverse
 --------------------
 Symbolic Z-matrix:
 Charge =  0 Multiplicity = 2

                         Standard orientation:
 ---------------------------------------------------------------------
 Center     Atomic      Atomic             Coordinates (Angstroms)
 Number     Number       Type             X           Y           Z
 ---------------------------------------------------------------------
      1          7           0        0.200137   -0.106470    0.008059
      2          7           0        1.311082    0.109821    0.019415
      3          7           0       -1.030401   -0.097185   -0.125323
      4          1           0       -1.477477   -0.777681    0.486725
      5          1           0       -1.888245    1.434516    0.198214
 ---------------------------------------------------------------------

 SCF Done:  E(UM06) =  -165.223247931     A.U. after   20 cycles

 The electronic state is 2-A.
 Alpha  occ. eigenvalues --  -14.57092 -14.47257 -14.45568  -1.17651  -1.00942
 Alpha  occ. eigenvalues --   -0.65506  -0.55867  -0.54601  -0.48153  -0.38751
 Alpha  occ. eigenvalues --   -0.32277  -0.22271
 Alpha virt. eigenvalues --   -0.03754   0.00734   0.03807   0.22388   0.25882
 Alpha virt. eigenvalues --    0.36529   0.41937   0.45500   0.50107   0.52807
 Alpha virt. eigenvalues --    0.60240   0.64562   0.67526   0.68842   0.74251

  Beta  occ. eigenvalues --  -14.57072 -14.46971 -14.45423  -1.17148  -1.00438
  Beta  occ. eigenvalues --   -0.65348  -0.54774  -0.54395  -0.47300  -0.36652
  Beta  occ. eigenvalues --   -0.31251
  Beta virt. eigenvalues --   -0.06548  -0.02437   0.02125   0.05071   0.22813
  Beta virt. eigenvalues --    0.36191   0.38849   0.41829   0.45618   0.50119
  Beta virt. eigenvalues --    0.53808   0.60466   0.65091   0.67857   0.68869

 Mulliken atomic charges:
              1
     1  N    0.228250
     2  N   -0.125657
     3  N   -0.322187
     4  H    0.265851
     5  H   -0.046256
 Sum of Mulliken atomic charges =  -0.00000

 Dipole moment (field-independent basis, Debye):
    X=             -0.6569    Y=             -1.7485    Z=              0.9860  Tot=              2.1122
 Quadrupole moment (field-independent basis, Debye-Ang):
   XX=            -20.8468   YY=            -17.9601   ZZ=            -17.7688
   XY=              2.6660   XZ=             -1.5922   YZ=             -1.1283

  Exact polarizability:  49.201  -6.729  21.736  -1.389   0.293  11.475
 Approx polarizability:  99.784  -4.815  25.471   0.901  -0.087  14.827

 ******    1 imaginary frequencies (negative Signs) ******

                     1                      2                      3
                     A                      A                      A
 Frequencies --  -687.1254               246.2078               384.1428
 Red. masses --     1.1787                 1.2043                 1.2781
 Frc consts  --     0.3279                 0.0430                 0.1111
 IR Inten    --    16.7199                 8.5976                66.9740

                     4                      5                      6
                     A                      A                      A
 Frequencies --   566.3017               637.3014              1169.9863
 Red. masses --     4.9647                 3.2105                 1.7331
 Frc consts  --     0.9381                 0.7683                 1.3978
 IR Inten    --     9.5810                18.3396               152.0631

                     7                      8                      9
                     A                      A                      A
 Frequencies --  1290.7616              2279.3344              3521.8931
 Red. masses --     2.9136                12.1601                 1.0763
 Frc consts  --     2.8600                37.2222                 7.8653
 IR Inten    --     3.7979               430.9262                59.3057

 - Thermochemistry -
 -------------------
 Temperature   298.150 Kelvin.  Pressure   1.00000 Atm.
 Atom     1 has atomic number  7 and mass  14.00307

 Molecular mass:    44.02487 amu.
 Principal axes and moments of inertia in atomic units:
                           1         2         3
     Eigenvalues --    12.63354 162.81462 172.13226
           X            0.99895  -0.03845  -0.02491
           Y            0.03806   0.99914  -0.01632
           Z            0.02552   0.01536   0.99956
 This molecule is an asymmetric top.
 Rotational symmetry number  1.
 Rotational temperatures (Kelvin)      6.85586     0.53198     0.50318
 Rotational constants (GHZ):         142.85317    11.08464    10.48462
    1 imaginary frequencies ignored.
 Zero-point vibrational energy      60387.1 (Joules/Mol)
                                   14.43286 (Kcal/Mol)
 Warning -- explicit consideration of   3 degrees of freedom as
           vibrations may cause significant error
 Vibrational temperatures:    354.24   552.70   814.78   916.93  1683.35
          (Kelvin)           1857.12  3279.45  5067.21

 Zero-point correction=                           0.023000 (Hartree/Particle)
 Thermal correction to Energy=                    0.027000
 Thermal correction to Enthalpy=                  0.027945
 Thermal correction to Gibbs Free Energy=        -0.001944
 Sum of electronic and zero-point Energies=           -165.200248
 Sum of electronic and thermal Energies=              -165.196247
 Sum of electronic and thermal Enthalpies=            -165.195303
 Sum of electronic and thermal Free Energies=         -165.225192

                     E (Thermal)             CV                S
                      KCal/Mol        Cal/Mol-Kelvin    Cal/Mol-Kelvin
 Total                   16.943             11.675             62.906
 Electronic               0.000              0.000              1.377
 Translational            0.889              2.981             37.273
 Rotational               0.889              2.981             20.498
 Vibrational             15.166              5.713              3.757
 Vibration     1          0.661              1.769              1.758
 Vibration     2          0.753              1.504              1.023
 Vibration     3          0.922              1.104              0.511

 Normal termination of Gaussian 09 at Tue Apr 29 14:50:58 2014.
