 Gaussian 09, Revision D.01,
 Gaussian 09:  ES64L-G09RevD.01 24-Apr-2013

 ----------------------------------------------------
 #P B3LYP 6-311G** FREQ # POP=full GFINPUT IOP(6/7=3)
 ----------------------------------------------------

 ---------------
 point 1 reverse
 ---------------
 Symbolic Z-matrix:
 Charge =  0 Multiplicity = 1

                         Standard orientation:
 ---------------------------------------------------------------------
 Center     Atomic      Atomic             Coordinates (Angstroms)
 Number     Number       Type             X           Y           Z
 ---------------------------------------------------------------------
      1          6           0        0.081035    0.615413    0.000000
      2          7           0        0.081035   -0.567349    0.000000
      3          1           0       -1.053456    0.278962    0.000000
 ---------------------------------------------------------------------

 SCF Done:  E(RB3LYP) =  -93.3753581157     A.U. after   12 cycles

 The electronic state is 1-A'.
 Alpha  occ. eigenvalues --  -14.38517 -10.23438  -0.99415  -0.53248  -0.45546
 Alpha  occ. eigenvalues --   -0.39319  -0.34577
 Alpha virt. eigenvalues --   -0.07005   0.00055   0.03555   0.21637   0.30411
 Alpha virt. eigenvalues --    0.39561   0.40758   0.52684   0.54716   0.63208
 Alpha virt. eigenvalues --    0.63950   0.73136   1.00269   1.02770   1.23115

 Mulliken charges:
               1
     1  C   -0.075694
     2  N   -0.111288
     3  H    0.186982
 Sum of Mulliken charges =   0.00000

 Dipole moment (field-independent basis, Debye):
    X=             -1.2588    Y=              0.1405    Z=              0.0000  Tot=              1.2666
 Quadrupole moment (field-independent basis, Debye-Ang):
   XX=             -9.6635   YY=            -14.2872   ZZ=            -12.0465
   XY=             -0.3471   XZ=              0.0000   YZ=              0.0000

  Exact polarizability:  14.058   0.129  18.618   0.000   0.000  10.258
 Approx polarizability:  20.762   0.970  36.047   0.000   0.000  13.876

 ******    1 imaginary frequencies (negative Signs) ******

                      1                      2                      3
                     A'                     A'                     A'
 Frequencies --  -1138.2594              2069.9020              2632.0604
 Red. masses --      1.1700                12.1019                 1.0599
 Frc consts  --      0.8931                30.5493                 4.3263
 IR Inten    --    100.1154                 8.8826               139.9958

 - Thermochemistry -
 -------------------
 Temperature   298.150 Kelvin.  Pressure   1.00000 Atm.
 Atom     1 has atomic number  6 and mass  12.00000

 Molecular mass:    27.01090 amu.
 Principal axes and moments of inertia in atomic units:
                           1         2         3
     Eigenvalues --     4.40985  32.64519  37.05504
           X           -0.04187   0.99912   0.00000
           Y            0.99912   0.04187   0.00000
           Z            0.00000   0.00000   1.00000
 This molecule is an asymmetric top.
 Rotational symmetry number  1.
 Rotational temperatures (Kelvin)     19.64099     2.65319     2.33744
 Rotational constants (GHZ):         409.25239    55.28352    48.70433
    1 imaginary frequencies ignored.
 Zero-point vibrational energy      28124.0 (Joules/Mol)
                                    6.72179 (Kcal/Mol)
 Vibrational temperatures:   2978.12  3786.94
          (Kelvin)

 Zero-point correction=                           0.010712 (Hartree/Particle)
 Thermal correction to Energy=                    0.013545
 Thermal correction to Enthalpy=                  0.014489
 Thermal correction to Gibbs Free Energy=        -0.010288
 Sum of electronic and zero-point Energies=            -93.364646
 Sum of electronic and thermal Energies=               -93.361813
 Sum of electronic and thermal Enthalpies=             -93.360869
 Sum of electronic and thermal Free Energies=          -93.385646

                     E (Thermal)             CV                S
                      KCal/Mol        Cal/Mol-Kelvin    Cal/Mol-Kelvin
 Total                    8.500              5.972             52.147
 Electronic               0.000              0.000              0.000
 Translational            0.889              2.981             35.816
 Rotational               0.889              2.981             16.330
 Vibrational              6.722              0.010              0.001

 Normal termination of Gaussian 09 at Thu Apr 14 13:06:42 2016.
