 Gaussian 09, Revision D.01,
 Gaussian 09:  ES64L-G09RevD.01 24-Apr-2013

 ----------------------------------------------------
 #P B3LYP 6-311G** FREQ # POP=full GFINPUT IOP(6/7=3)
 ----------------------------------------------------

 ---------------
 point 2 reverse
 ---------------
 Symbolic Z-matrix:
 Charge =  0 Multiplicity = 1

                         Standard orientation:
 ---------------------------------------------------------------------
 Center     Atomic      Atomic             Coordinates (Angstroms)
 Number     Number       Type             X           Y           Z
 ---------------------------------------------------------------------
      1          6           0        0.081232    0.612239    0.000000
      2          7           0        0.081232   -0.569512    0.000000
      3          1           0       -1.056014    0.313150    0.000000
 ---------------------------------------------------------------------

 SCF Done:  E(RB3LYP) =  -93.3756650297     A.U. after   12 cycles

 The electronic state is 1-A'.
 Alpha  occ. eigenvalues --  -14.38443 -10.23311  -0.99122  -0.53435  -0.45276
 Alpha  occ. eigenvalues --   -0.39235  -0.34652
 Alpha virt. eigenvalues --   -0.07374   0.00086   0.03829   0.21657   0.30573
 Alpha virt. eigenvalues --    0.39571   0.40783   0.52728   0.54991   0.63260
 Alpha virt. eigenvalues --    0.64027   0.73414   1.00560   1.02594   1.22257

 Mulliken charges:
               1
     1  C   -0.075076
     2  N   -0.111857
     3  H    0.186933
 Sum of Mulliken charges =   0.00000

 Dipole moment (field-independent basis, Debye):
    X=             -1.2638    Y=              0.1999    Z=              0.0000  Tot=              1.2795
 Quadrupole moment (field-independent basis, Debye-Ang):
   XX=             -9.6753   YY=            -14.2141   ZZ=            -12.0358
   XY=             -0.3902   XZ=              0.0000   YZ=              0.0000

  Exact polarizability:  13.998   0.102  18.751   0.000   0.000  10.228
 Approx polarizability:  20.609   1.087  36.748   0.000   0.000  13.814

 ******    1 imaginary frequencies (negative Signs) ******

                      1                      2                      3
                     A'                     A'                     A'
 Frequencies --  -1134.6414              2074.7119              2661.8711
 Red. masses --      1.1718                12.1498                 1.0606
 Frc consts  --      0.8888                30.8131                 4.4277
 IR Inten    --    115.2847                 7.2751               139.8269

 - Thermochemistry -
 -------------------
 Temperature   298.150 Kelvin.  Pressure   1.00000 Atm.
 Atom     1 has atomic number  6 and mass  12.00000

 Molecular mass:    27.01090 amu.
 Principal axes and moments of inertia in atomic units:
                           1         2         3
     Eigenvalues --     4.41840  32.68458  37.10297
           X           -0.04707   0.99889   0.00000
           Y            0.99889   0.04707   0.00000
           Z            0.00000   0.00000   1.00000
 This molecule is an asymmetric top.
 Rotational symmetry number  1.
 Rotational temperatures (Kelvin)     19.60299     2.64999     2.33442
 Rotational constants (GHZ):         408.46055    55.21691    48.64142
    1 imaginary frequencies ignored.
 Zero-point vibrational energy      28331.1 (Joules/Mol)
                                    6.77129 (Kcal/Mol)
 Vibrational temperatures:   2985.04  3829.83
          (Kelvin)

 Zero-point correction=                           0.010791 (Hartree/Particle)
 Thermal correction to Energy=                    0.013624
 Thermal correction to Enthalpy=                  0.014568
 Thermal correction to Gibbs Free Energy=        -0.010211
 Sum of electronic and zero-point Energies=            -93.364874
 Sum of electronic and thermal Energies=               -93.362041
 Sum of electronic and thermal Enthalpies=             -93.361097
 Sum of electronic and thermal Free Energies=          -93.385876

                     E (Thermal)             CV                S
                      KCal/Mol        Cal/Mol-Kelvin    Cal/Mol-Kelvin
 Total                    8.549              5.971             52.152
 Electronic               0.000              0.000              0.000
 Translational            0.889              2.981             35.816
 Rotational               0.889              2.981             16.334
 Vibrational              6.772              0.010              0.001

 Normal termination of Gaussian 09 at Thu Apr 14 13:06:42 2016.
