 Gaussian 09, Revision D.01,
 Gaussian 09:  ES64L-G09RevD.01 24-Apr-2013

 ----------------------------------------------------------------------
 #P B3LYP 6-311G** IRC=(forward, maxpoints=10, stepsize=2, calcfc) # PO
 P=full GFINPUT IOP(6/7=3)
 ----------------------------------------------------------------------

 -----------------
 irc reverse
 -----------------
 Symbolic Z-matrix:
 Charge =  0 Multiplicity = 1

 SCF Done:  E(RB3LYP) =  -93.3752569558     A.U. after   12 cycles
 SCF Done:  E(RB3LYP) =  -93.3752679485     A.U. after   10 cycles
 SCF Done:  E(RB3LYP) =  -93.3753016447     A.U. after   10 cycles
 SCF Done:  E(RB3LYP) =  -93.3753581866     A.U. after   10 cycles
 SCF Done:  E(RB3LYP) =  -93.3754376269     A.U. after   10 cycles
 SCF Done:  E(RB3LYP) =  -93.3755399673     A.U. after   10 cycles
 SCF Done:  E(RB3LYP) =  -93.3756651590     A.U. after   10 cycles
 SCF Done:  E(RB3LYP) =  -93.3758131069     A.U. after   10 cycles
 SCF Done:  E(RB3LYP) =  -93.3759836732     A.U. after   10 cycles
 SCF Done:  E(RB3LYP) =  -93.3761766808     A.U. after   10 cycles
 SCF Done:  E(RB3LYP) =  -93.3763919168     A.U. after   10 cycles

                          Input orientation:
 ---------------------------------------------------------------------
 Center     Atomic      Atomic             Coordinates (Angstroms)
 Number     Number       Type             X           Y           Z
 ---------------------------------------------------------------------
      1          6           0       -0.034579    0.000000   -0.621735
      2          7           0       -0.049676    0.000000    0.558567
      3          1           0        1.101945    0.000000   -0.358028
 ---------------------------------------------------------------------

 Alpha  occ. eigenvalues --  -14.38319 -10.23156  -0.98731  -0.53680  -0.44924
 Alpha  occ. eigenvalues --   -0.39117  -0.34757
 Alpha virt. eigenvalues --   -0.07816   0.00128   0.04179   0.21708   0.30812
 Alpha virt. eigenvalues --    0.39581   0.40812   0.52792   0.55367   0.63322
 Alpha virt. eigenvalues --    0.64138   0.73832   1.00970   1.02315   1.21209

 Mulliken charges:
               1
     1  C   -0.073695
     2  N   -0.113248
     3  H    0.186943
 Sum of Mulliken charges =   0.00000

 Dipole moment (field-independent basis, Debye):
    X=              1.2741    Y=              0.0000    Z=             -0.2686  Tot=              1.3021
 Quadrupole moment (field-independent basis, Debye-Ang):
   XX=             -9.5829   YY=            -12.0202   ZZ=            -14.1137
   XY=              0.0000   XZ=             -0.4153   YZ=              0.0000

  Exact polarizability:   0.000   0.000   0.000   0.000   0.000   0.000
 Approx polarizability:  20.349   0.000  13.726   1.029   0.000  37.706

 Normal termination of Gaussian 09 at Thu Apr 14 12:48:06 2016.
