                         Program Version 4.0.1.2 - RELEASE -
|  1> ! RHF SCS-MP2 def2-TZVP
|  2> ! NumFreq
|  3> * xyz 0 1
|  4>  C     0.        0.        0.
|  5>  H     0.        0.        1.0827
|  6>  H     1.0208    0.       -0.36085
|  7>  H    -0.5104   -0.88404  -0.36085
|  8>  H    -0.5104    0.88404  -0.36085
|  9> *
| 10>
| 11>                          ****END OF INPUT****

CARTESIAN COORDINATES (ANGSTROEM)
---------------------------------
  C      0.000000    0.000000    0.000000
  H      0.000000    0.000000    1.082700
  H      1.020800    0.000000   -0.360850
  H     -0.510400   -0.884040   -0.360850
  H     -0.510400    0.884040   -0.360850

 Total Charge           Charge          ....    0
 Multiplicity           Mult            ....    1
 Number of Electrons    NEL             ....   10
 Basis Dimension        Dim             ....   55

ORBITAL ENERGIES
----------------

  NO   OCC          E(Eh)            E(eV)
   0   2.0000     -11.203150      -304.8532
   1   2.0000      -0.945354       -25.7244
   2   2.0000      -0.546731       -14.8773
   3   2.0000      -0.546731       -14.8773
   4   2.0000      -0.546715       -14.8769
   5   0.0000       0.150007         4.0819
   6   0.0000       0.238028         6.4771
   7   0.0000       0.238028         6.4771
   8   0.0000       0.238030         6.4771
   9   0.0000       0.313247         8.5239

MULLIKEN ATOMIC CHARGES
-----------------------
   0 C :   -0.490883
   1 H :    0.122720
   2 H :    0.122721
   3 H :    0.122721
   4 H :    0.122721
Sum of atomic charges:   -0.0000000

LOEWDIN ATOMIC CHARGES
----------------------
   0 C :   -0.398661
   1 H :    0.099665
   2 H :    0.099665
   3 H :    0.099665
   4 H :    0.099665

  Mayer bond orders larger than 0.1
B(  0-C ,  1-H ) :   0.9414 B(  0-C ,  2-H ) :   0.9414 B(  0-C ,  3-H ) :   0.9414
B(  0-C ,  4-H ) :   0.9414

MP2 TOTAL ENERGY:      -40.407003672 Eh
FINAL SINGLE POINT ENERGY       -40.407003672432

DIPOLE MOMENT
-------------
                                X             Y             Z
Electronic contribution:      0.00000      -0.00000      -0.00008
Nuclear contribution   :      0.00000       0.00000       0.00011
                        -----------------------------------------
Total Dipole Moment    :      0.00000      -0.00000       0.00002
                        -----------------------------------------
Magnitude (a.u.)       :      0.00002
Magnitude (Debye)      :      0.00005

VIBRATIONAL FREQUENCIES
-----------------------

   0:         0.00 cm**-1
   1:         0.00 cm**-1
   2:         0.00 cm**-1
   3:         0.00 cm**-1
   4:         0.00 cm**-1
   5:         0.00 cm**-1
   6:      1355.09 cm**-1
   7:      1355.24 cm**-1
   8:      1355.33 cm**-1
   9:      1585.65 cm**-1
  10:      1585.72 cm**-1
  11:      3112.49 cm**-1
  12:      3246.40 cm**-1
  13:      3246.42 cm**-1
  14:      3246.42 cm**-1

IR SPECTRUM
-----------

 Mode    freq (cm**-1)   T**2         TX         TY         TZ
-------------------------------------------------------------------
   6:      1355.09   12.959330  ( -0.000002   3.599907   0.000011)
   7:      1355.24   12.945710  (  3.597878   0.000002   0.031333)
   8:      1355.33   12.937955  (  0.031457   0.000011  -3.596799)
   9:      1585.65    0.000000  ( -0.000000  -0.000137  -0.000000)
  10:      1585.72    0.000000  (  0.000077  -0.000000  -0.000264)
  11:      3112.49    0.000007  (  0.001359   0.000000   0.002177)
  12:      3246.40   19.395564  ( -0.000245  -4.404039  -0.000257)
  13:      3246.42   19.403317  (  3.095217  -0.000354   3.134159)
  14:      3246.42   19.410326  ( -3.133630  -0.000006   3.096884)

--------------------------
THERMOCHEMISTRY AT 298.15K
--------------------------

Temperature         ... 298.15 K
Pressure            ... 1.00 atm
Total Mass          ... 16.04 AMU

Throughout the following assumptions are being made:
  (1) The electronic state is orbitally nondegenerate
  (2) There are no thermally accessible electronically excited states
  (3) Hindered rotations indicated by low frequency modes are not
      treated as such but are treated as vibrations and this may
      cause some error
  (4) All equations used are the standard statistical mechanics
      equations for an ideal gas
  (5) All vibrations are strictly harmonic

freq.    1355.09  E(vib)   ...       0.01
freq.    1355.24  E(vib)   ...       0.01
freq.    1355.33  E(vib)   ...       0.01
freq.    1585.65  E(vib)   ...       0.00
freq.    1585.72  E(vib)   ...       0.00
freq.    3112.49  E(vib)   ...       0.00
freq.    3246.40  E(vib)   ...       0.00
freq.    3246.42  E(vib)   ...       0.00
freq.    3246.42  E(vib)   ...       0.00

------------
INNER ENERGY
------------

The inner energy is: U= E(el) + E(ZPE) + E(vib) + E(rot) + E(trans)
    E(el)   - is the total energy from the electronic structure calculation
              = E(kin-el) + E(nuc-el) + E(el-el) + E(nuc-nuc)
    E(ZPE)  - the the zero temperature vibrational energy from the frequency calculation
    E(vib)  - the the finite temperature correction to E(ZPE) due to population
              of excited vibrational states
    E(rot)  - is the rotational thermal energy
    E(trans)- is the translational thermal energy

Summary of contributions to the inner energy U:
Electronic energy                ...    -40.40700363 Eh
Zero point energy                ...      0.04576558 Eh      28.72 kcal/mol
Thermal vibrational correction   ...      0.00003369 Eh       0.02 kcal/mol
Thermal rotational correction    ...      0.00141627 Eh       0.89 kcal/mol
Thermal translational correction ...      0.00141627 Eh       0.89 kcal/mol
-----------------------------------------------------------------------
Total thermal energy                    -40.35837183 Eh

Summary of corrections to the electronic energy:
(perhaps to be used in another calculation)
Total thermal correction                  0.00286623 Eh       1.80 kcal/mol
Non-thermal (ZPE) correction              0.04576558 Eh      28.72 kcal/mol
-----------------------------------------------------------------------
Total correction                          0.04863181 Eh      30.52 kcal/mol

--------
ENTHALPY
--------

The enthalpy is H = U + kB*T
                kB is Boltzmann's constant
Total free energy                 ...    -40.35837183 Eh
Thermal Enthalpy correction       ...      0.00094421 Eh       0.59 kcal/mol
-----------------------------------------------------------------------
Total Enthalpy                    ...    -40.35742762 Eh

Vibrational entropy computed according to the QRRHO of S. Grimme
Chem.Eur.J. 2012 18 9955

-------
ENTROPY
-------

The entropy contributions are T*S = T*(S(el)+S(vib)+S(rot)+S(trans)
     S(el)   - electronic entropy
     S(vib)  - vibrational entropy
     S(rot)  - rotational entropy
     S(trans)- translational entropy
The entropies will be listed as mutliplied by the temperature to get
units of energy

Electronic entropy                ...      0.00000000 Eh      0.00 kcal/mol
Vibrational entropy               ...      0.00003869 Eh      0.02 kcal/mol
Rotational entropy                ...      0.00609831 Eh      3.83 kcal/mol
Translational entropy             ...      0.01627961 Eh     10.22 kcal/mol
-----------------------------------------------------------------------
Final entropy term                ...      0.02241661 Eh     14.07 kcal/mol

CAUTION: The rotational entropy is not quite correctly treated here
         because it includes a symmetry number that is not yet correctly
         implemented in ORCA!
For a nonlinear molecule the correct rotational entropy is:
    S(rot) = R*(ln(qrot/sn)+1.5)
    R    = 8.31441 J/mol/K = 1.987191683e-3 kcal/mol/K
    qrot =  427.2847937
    sn is the rotational symmetry number. We have assumed 3 here
       if it is different for your molecule then you should correct
       the printed rotational entropy by manually evaluating the equation
       as given above

For convenience we print out the resulting values for sn=1 - 12:
 sn= 1  qrot/sn=     427.2848 T*S(rot)=     4.48 kcal/mol T*S(tot)=    14.72 kcal/mol
 sn= 2  qrot/sn=     213.6424 T*S(rot)=     4.07 kcal/mol T*S(tot)=    14.31 kcal/mol
 sn= 3  qrot/sn=     142.4283 T*S(rot)=     3.83 kcal/mol T*S(tot)=    14.07 kcal/mol
 sn= 4  qrot/sn=     106.8212 T*S(rot)=     3.66 kcal/mol T*S(tot)=    13.90 kcal/mol
 sn= 5  qrot/sn=      85.4570 T*S(rot)=     3.52 kcal/mol T*S(tot)=    13.76 kcal/mol
 sn= 6  qrot/sn=      71.2141 T*S(rot)=     3.42 kcal/mol T*S(tot)=    13.66 kcal/mol
 sn= 7  qrot/sn=      61.0407 T*S(rot)=     3.32 kcal/mol T*S(tot)=    13.56 kcal/mol
 sn= 8  qrot/sn=      53.4106 T*S(rot)=     3.25 kcal/mol T*S(tot)=    13.49 kcal/mol
 sn= 9  qrot/sn=      47.4761 T*S(rot)=     3.18 kcal/mol T*S(tot)=    13.42 kcal/mol
 sn=10  qrot/sn=      42.7285 T*S(rot)=     3.11 kcal/mol T*S(tot)=    13.35 kcal/mol
 sn=11  qrot/sn=      38.8441 T*S(rot)=     3.06 kcal/mol T*S(tot)=    13.30 kcal/mol
 sn=12  qrot/sn=      35.6071 T*S(rot)=     3.01 kcal/mol T*S(tot)=    13.25 kcal/mol

-------------------
GIBBS FREE ENTHALPY
-------------------

The Gibbs free enthalpy is G = H - T*S

Total enthalpy                    ...    -40.35742762 Eh
Total entropy correction          ...     -0.02241661 Eh    -14.07 kcal/mol
-----------------------------------------------------------------------
Final Gibbs free enthalpy         ...    -40.37984423 Eh

For completeness - the Gibbs free enthalpy minus the electronic energy
G-E(el)                           ...      0.02715940 Eh     17.04 kcal/mol

                             ****ORCA TERMINATED NORMALLY****
TOTAL RUN TIME: 0 days 0 hours 1 minutes 32 seconds 481 msec
