 Gaussian 09, Revision A.02,
 Gaussian 09:  AM64L-G09RevA.02 11-Jun-2009

 ----------------------------------------------------------------------
 #P M06 6-311G** OPT=(TS, CALCFC, NOEIGENTEST, MAXCYC=40) FREQ # GFINPU
 T IOP(6/7=3) POP=FULL
 ----------------------------------------------------------------------

 --
 TS
 --
 Symbolic Z-matrix:
 Charge =  0 Multiplicity = 2

 SCF Done:  E(UM06) =  -165.223556752     A.U. after   21 cycles
 SCF Done:  E(UM06) =  -165.223168462     A.U. after   19 cycles
 SCF Done:  E(UM06) =  -165.223037423     A.U. after   18 cycles
 SCF Done:  E(UM06) =  -165.223013879     A.U. after   13 cycles
 SCF Done:  E(UM06) =  -165.222819631     A.U. after   15 cycles
 SCF Done:  E(UM06) =  -165.223013038     A.U. after   16 cycles
 SCF Done:  E(UM06) =  -165.223014140     A.U. after   12 cycles
 Optimization completed.
    -- Stationary point found.
 Normal termination of Gaussian 09 at Fri Apr 25 16:32:36 2014.

 ----------------------------------------------------------------------
 #P Geom=AllCheck Guess=TCheck SCRF=Check Test GenChk UM06/6-311G(d,p)
 Freq
 ----------------------------------------------------------------------

 TS
 --
 Redundant internal coordinates taken from checkpoint file:
 /scratch_l/henon/hhn3_1334/Gau-1352.chk
 Charge =  0 Multiplicity = 2

                         Standard orientation:
 ---------------------------------------------------------------------
 Center     Atomic      Atomic             Coordinates (Angstroms)
 Number     Number       Type             X           Y           Z
 ---------------------------------------------------------------------
      1          7           0        0.199233   -0.110575    0.006698
      2          7           0        1.311610    0.105966    0.019793
      3          7           0       -1.034184   -0.083905   -0.123843
      4          1           0       -1.486734   -0.770813    0.476464
      5          1           0       -1.849885    1.390409    0.204998
 ---------------------------------------------------------------------

 SCF Done:  E(UM06) =  -165.223014140     A.U. after    1 cycles

 The electronic state is 2-A.
 Alpha  occ. eigenvalues --  -14.56805 -14.47200 -14.45971  -1.17507  -1.00880
 Alpha  occ. eigenvalues --   -0.65647  -0.56012  -0.54455  -0.48160  -0.39334
 Alpha  occ. eigenvalues --   -0.32388  -0.21382
 Alpha virt. eigenvalues --   -0.03798   0.00689   0.03827   0.22176   0.25977
 Alpha virt. eigenvalues --    0.36371   0.41923   0.45576   0.50115   0.52964
 Alpha virt. eigenvalues --    0.60116   0.64577   0.67565   0.68793   0.74124

  Beta  occ. eigenvalues --  -14.56769 -14.46845 -14.45825  -1.16878  -1.00273
  Beta  occ. eigenvalues --   -0.65469  -0.54712  -0.54183  -0.47105  -0.37109
  Beta  occ. eigenvalues --   -0.31434
  Beta virt. eigenvalues --   -0.06669  -0.02339   0.02196   0.05159   0.22626
  Beta virt. eigenvalues --    0.35867   0.37968   0.41838   0.45643   0.50124
  Beta virt. eigenvalues --    0.53925   0.60356   0.65121   0.67958   0.68820

 Mulliken atomic charges:
              1
     1  N    0.221211
     2  N   -0.125106
     3  N   -0.318357
     4  H    0.267284
     5  H   -0.045032
 Sum of Mulliken atomic charges =   0.00000

 Dipole moment (field-independent basis, Debye):
    X=             -0.7318    Y=             -1.7341    Z=              0.9558  Tot=              2.1109
 Quadrupole moment (field-independent basis, Debye-Ang):
   XX=            -20.7569   YY=            -17.9557   ZZ=            -17.8031
   XY=              2.6627   XZ=             -1.5592   YZ=             -1.1086

  Exact polarizability:  50.865  -8.171  22.809  -1.724   0.564  11.526
 Approx polarizability: 103.582  -8.208  27.401   0.282   0.262  14.894

 ******    1 imaginary frequencies (negative Signs) ******

                     1                      2                      3
                     A                      A                      A
 Frequencies --  -927.4713               320.9818               434.9409
 Red. masses --     1.1876                 1.2065                 1.4553
 Frc consts  --     0.6019                 0.0732                 0.1622
 IR Inten    --    95.6876                12.7781                56.9753

                     4                      5                      6
                     A                      A                      A
 Frequencies --   572.5904               649.7491              1174.9841
 Red. masses --     4.9292                 2.4964                 1.8856
 Frc consts  --     0.9522                 0.6209                 1.5338
 IR Inten    --     6.5560                25.3547               128.7543

                     7                      8                      9
                     A                      A                      A
 Frequencies --  1286.2706              2264.7929              3525.9483
 Red. masses --     2.4243                12.0392                 1.0764
 Frc consts  --     2.3632                36.3836                 7.8845
 IR Inten    --    10.2951               431.3610                59.8246

 - Thermochemistry -
 -------------------
 Temperature   298.150 Kelvin.  Pressure   1.00000 Atm.
 Atom     1 has atomic number  7 and mass  14.00307

 Molecular mass:    44.02487 amu.
 Principal axes and moments of inertia in atomic units:
                           1         2         3
     Eigenvalues --    12.02667 162.77522 171.57022
           X            0.99908  -0.03503  -0.02487
           Y            0.03468   0.99930  -0.01424
           Z            0.02535   0.01337   0.99959
 This molecule is an asymmetric top.
 Rotational symmetry number  1.
 Rotational temperatures (Kelvin)      7.20181     0.53211     0.50483
 Rotational constants (GHZ):         150.06165    11.08732    10.51897
    1 imaginary frequencies ignored.
 Zero-point vibrational energy      61190.5 (Joules/Mol)
                                   14.62489 (Kcal/Mol)
 Warning -- explicit consideration of   3 degrees of freedom as
           vibrations may cause significant error
 Vibrational temperatures:    461.82   625.78   823.83   934.84  1690.54
          (Kelvin)           1850.65  3258.53  5073.05

 Zero-point correction=                           0.023306 (Hartree/Particle)
 Thermal correction to Energy=                    0.027151
 Thermal correction to Enthalpy=                  0.028095
 Thermal correction to Gibbs Free Energy=        -0.001453
 Sum of electronic and zero-point Energies=           -165.199708
 Sum of electronic and thermal Energies=              -165.195863
 Sum of electronic and thermal Enthalpies=            -165.194919
 Sum of electronic and thermal Free Energies=         -165.224467

                     E (Thermal)             CV                S
                      KCal/Mol        Cal/Mol-Kelvin    Cal/Mol-Kelvin
 Total                   17.038             11.389             62.190
 Electronic               0.000              0.000              1.377
 Translational            0.889              2.981             37.273
 Rotational               0.889              2.981             20.446
 Vibrational             15.260              5.427              3.094
 Vibration     1          0.706              1.633              1.305
 Vibration     2          0.796              1.394              0.843
 Vibration     3          0.929              1.091              0.499

 Optimization completed.
    -- Stationary point found.
 Normal termination of Gaussian 09 at Fri Apr 25 16:32:45 2014.
