 Gaussian 03, Revision C.02,
 Gaussian 03:  AM64L-G03RevC.02 12-Jun-2004

 -------------------------------------------------
 #P MP2 6-31G** iop(6/7=3) gfinput pop=full # freq
 -------------------------------------------------

 ---
 job
 ---
 Symbolic Z-matrix:
 Charge =  0 Multiplicity = 2

                         Standard orientation:
 ---------------------------------------------------------------------
 Center     Atomic     Atomic              Coordinates (Angstroms)
 Number     Number      Type              X           Y           Z
 ---------------------------------------------------------------------
    1          6             0        0.302814    0.000460    0.011804
    2          1             0        0.530362    0.929219   -0.487456
    3          1             0        0.534791   -0.903161   -0.529757
    4          1             0        0.470832   -0.023726    1.077081
    5          1             0       -1.290783   -0.001959   -0.050310
    6          1             0       -2.062084   -0.003131   -0.080379
 ---------------------------------------------------------------------

 SCF Done:  E(UHF) =  -40.6707445333     A.U. after   14 cycles
 E2 =    -0.1611489028D+00 EUMP2 =    -0.40831893436186D+02

 The electronic state is 2-A.
 Alpha  occ. eigenvalues --  -11.23742  -0.96588  -0.62234  -0.58031  -0.58031
 Alpha  occ. eigenvalues --   -0.36083
 Alpha virt. eigenvalues --    0.25288   0.31972   0.31972   0.34145   0.71522
 Alpha virt. eigenvalues --    0.71522   0.75340   0.86073   1.14562   1.14562
 Alpha virt. eigenvalues --    1.16862   1.29118   1.39769   1.65234   1.65234

  Beta  occ. eigenvalues --  -11.21349  -0.88232  -0.56464  -0.56464  -0.56108
  Beta virt. eigenvalues --    0.12730   0.27017   0.33189   0.33189   0.38726
  Beta virt. eigenvalues --    0.72346   0.72346   0.86086   0.91004   1.15755
  Beta virt. eigenvalues --    1.15755   1.19235   1.30269   1.42914   1.70903

 Mulliken atomic charges:
              1
     1  C   -0.387354
     2  H    0.139080
     3  H    0.139080
     4  H    0.139080
     5  H   -0.023919
     6  H   -0.005967
 Sum of Mulliken charges=   0.00000

 Dipole moment (field-independent basis, Debye):
    X=     0.7412    Y=     0.0011    Z=     0.0289  Tot=     0.7418
 Quadrupole moment (field-independent basis, Debye-Ang):
   XX=   -11.0645   YY=    -9.2358   ZZ=    -9.2385
   XY=    -0.0028   XZ=    -0.0713   YZ=    -0.0001

  Exact polarizability:  22.475   0.015  12.427   0.392   0.001  12.442
 Approx polarizability:  14.594   0.007   9.984   0.180   0.000   9.991

 ******    1 imaginary frequencies (negative Signs) ******

                     1                      2                      3
                     A                      A                      A
 Frequencies --  -320.1659               405.5857               405.5921
 Red. masses --     1.2157                 1.0413                 1.0413
 Frc consts  --     0.0734                 0.1009                 0.1009
 IR Inten    --     4.9589                 1.5685                 1.5685

                     4                      5                      6
                     A                      A                      A
 Frequencies --   800.3698               800.3702               953.9149
 Red. masses --     1.0294                 1.0294                 1.1091
 Frc consts  --     0.3885                 0.3885                 0.5946
 IR Inten    --     0.0069                 0.0069                20.4828

                     7                      8                      9
                     A                      A                      A
 Frequencies --  1493.3058              1493.3071              3204.8097
 Red. masses --     1.0909                 1.0909                 1.0132
 Frc consts  --     1.4333                 1.4333                 6.1315
 IR Inten    --     2.0899                 2.0899                 0.8751

                    10                     11                     12
                     A                      A                      A
 Frequencies --  3383.4875              3383.4929              3635.4116
 Red. masses --     1.1148                 1.1148                 1.0111
 Frc consts  --     7.5195                 7.5195                 7.8735
 IR Inten    --     7.1206                 7.1205               131.1983

 - Thermochemistry -
 -------------------
 Temperature   298.150 Kelvin.  Pressure   1.00000 Atm.
 Atom  1 has atomic number  6 and mass  12.00000

 Molecular mass:    17.03913 amu.
 Principal axes and moments of inertia in atomic units:
                           1         2         3
     EIGENVALUES --    12.09060  33.46570  33.46571
           X            0.99924   0.00000  -0.03898
           Y            0.00152   0.99924   0.03889
           Z            0.03895  -0.03892   0.99848
 This molecule is an asymmetric top.
 Rotational symmetry number  1.
 Rotational temperatures (Kelvin)      7.16373     2.58814     2.58814
 Rotational constants (GHZ):         149.26809    53.92808    53.92808
    1 imaginary frequencies ignored.
 Zero-point vibrational energy     119385.2 (Joules/Mol)
                                   28.53375 (Kcal/Mol)
 Warning -- explicit consideration of   2 degrees of freedom as
           vibrations may cause significant error
 Vibrational temperatures:    583.55   583.56  1151.55  1151.55  1372.47
          (Kelvin)           2148.53  2148.53  4611.00  4868.08  4868.09
                             5230.54

 Zero-point correction=                           0.045471 (Hartree/Particle)
 Thermal correction to Energy=                    0.049123
 Thermal correction to Enthalpy=                  0.050067
 Thermal correction to Gibbs Free Energy=         0.023691
 Sum of electronic and zero-point Energies=            -40.786422
 Sum of electronic and thermal Energies=               -40.782771
 Sum of electronic and thermal Enthalpies=             -40.781827
 Sum of electronic and thermal Free Energies=          -40.808202

                     E (Thermal)             CV                S
                      KCal/Mol        Cal/Mol-Kelvin    Cal/Mol-Kelvin
 Total                   30.825             10.762             55.511
 Electronic               0.000              0.000              1.377
 Translational            0.889              2.981             34.443
 Rotational               0.889              2.981             17.256
 Vibrational             29.047              4.800              2.435
 Vibration  1             0.771              1.458              0.942
 Vibration  2             0.771              1.458              0.942

 Normal termination of Gaussian 03 at Wed Apr 17 22:16:08 2013.
