 Gaussian 03, Revision C.02,
 Gaussian 03:  AM64L-G03RevC.02 12-Jun-2004

 -------------------------------------------------
 #P MP2 6-31G** iop(6/7=3) gfinput pop=full # freq
 -------------------------------------------------

 ---
 job
 ---
 Symbolic Z-matrix:
 Charge =  0 Multiplicity = 2

                         Standard orientation:
 ---------------------------------------------------------------------
 Center     Atomic     Atomic              Coordinates (Angstroms)
 Number     Number      Type              X           Y           Z
 ---------------------------------------------------------------------
    1          6             0        0.242614    0.059812    0.131937
    2          1             0        0.326278    1.127453   -0.006864
    3          1             0        0.958035   -0.537059   -0.413991
    4          1             0        0.043735   -0.262985    1.143059
    5          1             0       -1.047449   -0.258231   -0.569611
    6          1             0       -1.736283   -0.428053   -0.944215
 ---------------------------------------------------------------------

 SCF Done:  E(UHF) =  -40.6661591986     A.U. after   14 cycles
 E2 =    -0.1629226767D+00 EUMP2 =    -0.40829081875287D+02

 The electronic state is 2-A.
 Alpha  occ. eigenvalues --  -11.23927  -0.96904  -0.62741  -0.57960  -0.57960
 Alpha  occ. eigenvalues --   -0.35576
 Alpha virt. eigenvalues --    0.25355   0.31779   0.31779   0.34741   0.71311
 Alpha virt. eigenvalues --    0.71311   0.75004   0.87793   1.14155   1.14155
 Alpha virt. eigenvalues --    1.17144   1.26385   1.40502   1.63890   1.63890

  Beta  occ. eigenvalues --  -11.21609  -0.89046  -0.56461  -0.56461  -0.55370
  Beta virt. eigenvalues --    0.12216   0.26919   0.32993   0.32993   0.39561
  Beta virt. eigenvalues --    0.72019   0.72019   0.86040   0.92430   1.15410
  Beta virt. eigenvalues --    1.15410   1.19417   1.28010   1.43535   1.68967

 Mulliken atomic charges:
              1
     1  C   -0.384647
     2  H    0.139577
     3  H    0.139577
     4  H    0.139577
     5  H   -0.023825
     6  H   -0.010261
 Sum of Mulliken charges=   0.00000

 Dipole moment (field-independent basis, Debye):
    X=     0.7010    Y=     0.1728    Z=     0.3812  Tot=     0.8165
 Quadrupole moment (field-independent basis, Debye-Ang):
   XX=   -10.6993   YY=    -9.3646   ZZ=    -9.6984
   XY=    -0.3503   XZ=    -0.7728   YZ=    -0.1905

  Exact polarizability:  21.423   2.207  13.014   4.869   1.200  15.118
 Approx polarizability:  14.254   1.042  10.286   2.298   0.566  11.279

 ******    1 imaginary frequencies (negative Signs) ******

                     1                      2                      3
                     A                      A                      A
 Frequencies --  -843.9706               487.1358               487.1406
 Red. masses --     1.2106                 1.0463                 1.0463
 Frc consts  --     0.5081                 0.1463                 0.1463
 IR Inten    --     4.0567                 1.4154                 1.4154

                     4                      5                      6
                     A                      A                      A
 Frequencies --   977.2909               977.2911              1038.8413
 Red. masses --     1.0336                 1.0336                 1.0994
 Frc consts  --     0.5817                 0.5817                 0.6990
 IR Inten    --     0.0632                 0.0632                10.6443

                     7                      8                      9
                     A                      A                      A
 Frequencies --  1496.1562              1496.1574              2985.7624
 Red. masses --     1.0863                 1.0863                 1.0188
 Frc consts  --     1.4327                 1.4327                 5.3510
 IR Inten    --     2.3253                 2.3253                82.6755

                    10                     11                     12
                     A                      A                      A
 Frequencies --  3199.4437              3368.8246              3368.8293
 Red. masses --     1.0173                 1.1138                 1.1138
 Frc consts  --     6.1355                 7.4475                 7.4475
 IR Inten    --     0.9449                 8.0490                 8.0489

 - Thermochemistry -
 -------------------
 Temperature   298.150 Kelvin.  Pressure   1.00000 Atm.
 Atom  1 has atomic number  6 and mass  12.00000

 Molecular mass:    17.03913 amu.
 Principal axes and moments of inertia in atomic units:
                           1         2         3
     EIGENVALUES --    12.00439  31.77532  31.77532
           X            0.85859   0.00000  -0.51266
           Y            0.21167   0.91078   0.35451
           Z            0.46692  -0.41289   0.78199
 This molecule is an asymmetric top.
 Rotational symmetry number  1.
 Rotational temperatures (Kelvin)      7.21518     2.72582     2.72582
 Rotational constants (GHZ):         150.34016    56.79695    56.79694
    1 imaginary frequencies ignored.
 Zero-point vibrational energy     118926.0 (Joules/Mol)
                                   28.42399 (Kcal/Mol)
 Warning -- explicit consideration of   2 degrees of freedom as
           vibrations may cause significant error
 Vibrational temperatures:    700.88   700.89  1406.10  1406.10  1494.66
          (Kelvin)           2152.63  2152.63  4295.84  4603.28  4846.98
                             4846.99

 Zero-point correction=                           0.045297 (Hartree/Particle)
 Thermal correction to Energy=                    0.048719
 Thermal correction to Enthalpy=                  0.049663
 Thermal correction to Gibbs Free Energy=         0.023694
 Sum of electronic and zero-point Energies=            -40.783785
 Sum of electronic and thermal Energies=               -40.780363
 Sum of electronic and thermal Enthalpies=             -40.779419
 Sum of electronic and thermal Free Energies=          -40.805388

                     E (Thermal)             CV                S
                      KCal/Mol        Cal/Mol-Kelvin    Cal/Mol-Kelvin
 Total                   30.571              9.813             54.657
 Electronic               0.000              0.000              1.377
 Translational            0.889              2.981             34.443
 Rotational               0.889              2.981             17.145
 Vibrational             28.794              3.851              1.691
 Vibration  1             0.843              1.279              0.691
 Vibration  2             0.843              1.279              0.691

 Normal termination of Gaussian 03 at Wed Apr 17 22:15:57 2013.
