 Gaussian 03, Revision C.02,
 Gaussian 03:  AM64L-G03RevC.02 12-Jun-2004

 -------------------------------------------------
 #P MP2 6-31G** iop(6/7=3) gfinput pop=full # freq
 -------------------------------------------------

 ---
 job
 ---
 Symbolic Z-matrix:
 Charge =  0 Multiplicity = 2

                         Standard orientation:
 ---------------------------------------------------------------------
 Center     Atomic     Atomic              Coordinates (Angstroms)
 Number     Number      Type              X           Y           Z
 ---------------------------------------------------------------------
    1          6             0        0.034478   -0.091597   -0.275891
    2          1             0       -0.682752   -0.896000   -0.333133
    3          1             0        1.073200   -0.384441   -0.283531
    4          1             0       -0.208863    0.798026   -0.836350
    5          1             0       -0.148063    0.393356    1.184772
    6          1             0       -0.240390    0.638644    1.923586
 ---------------------------------------------------------------------

 SCF Done:  E(UHF) =  -40.6684543870     A.U. after   14 cycles
 E2 =    -0.1619714090D+00 EUMP2 =    -0.40830425795919D+02

 The electronic state is 2-A.
 Alpha  occ. eigenvalues --  -11.23824  -0.96745  -0.62513  -0.57999  -0.57999
 Alpha  occ. eigenvalues --   -0.35824
 Alpha virt. eigenvalues --    0.25321   0.31879   0.31879   0.34459   0.71415
 Alpha virt. eigenvalues --    0.71415   0.75168   0.86894   1.14367   1.14367
 Alpha virt. eigenvalues --    1.17024   1.27904   1.40120   1.64600   1.64600

  Beta  occ. eigenvalues --  -11.21458  -0.88601  -0.56457  -0.56457  -0.55799
  Beta virt. eigenvalues --    0.12511   0.26974   0.33102   0.33102   0.39151
  Beta virt. eigenvalues --    0.72187   0.72187   0.86150   0.91604   1.15597
  Beta virt. eigenvalues --    1.15597   1.19357   1.29248   1.43234   1.69999

 Mulliken atomic charges:
              1
     1  C   -0.386047
     2  H    0.139303
     3  H    0.139303
     4  H    0.139303
     5  H   -0.024267
     6  H   -0.007597
 Sum of Mulliken charges=   0.00000

 Dipole moment (field-independent basis, Debye):
    X=     0.0916    Y=    -0.2433    Z=    -0.7327  Tot=     0.7775
 Quadrupole moment (field-independent basis, Debye-Ang):
   XX=    -9.2801   YY=    -9.4376   ZZ=   -10.9184
   XY=     0.0691   XZ=     0.2080   YZ=    -0.5526

  Exact polarizability:  12.600  -0.406  13.525  -1.222   3.246  22.225
 Approx polarizability:  10.076  -0.189  10.506  -0.568   1.510  14.554

 ******    1 imaginary frequencies (negative Signs) ******

                     1                      2                      3
                     A                      A                      A
 Frequencies --  -564.8542               442.3524               442.3549
 Red. masses --     1.2162                 1.0437                 1.0437
 Frc consts  --     0.2286                 0.1203                 0.1203
 IR Inten    --     4.6081                 1.5325                 1.5326

                     4                      5                      6
                     A                      A                      A
 Frequencies --   879.8362               879.8363               994.9133
 Red. masses --     1.0313                 1.0313                 1.1044
 Frc consts  --     0.4704                 0.4704                 0.6441
 IR Inten    --     0.0214                 0.0214                15.4247

                     7                      8                      9
                     A                      A                      A
 Frequencies --  1494.4878              1494.4883              3199.0251
 Red. masses --     1.0889                 1.0889                 1.0128
 Frc consts  --     1.4330                 1.4330                 6.1066
 IR Inten    --     2.1980                 2.1980                 2.5567

                    10                     11                     12
                     A                      A                      A
 Frequencies --  3368.8540              3376.7781              3376.7800
 Red. masses --     1.0152                 1.1143                 1.1143
 Frc consts  --     6.7882                 7.4864                 7.4864
 IR Inten    --   111.3316                 7.5706                 7.5705

 - Thermochemistry -
 -------------------
 Temperature   298.150 Kelvin.  Pressure   1.00000 Atm.
 Atom  1 has atomic number  6 and mass  12.00000

 Molecular mass:    17.03913 amu.
 Principal axes and moments of inertia in atomic units:
                           1         2         3
     EIGENVALUES --    12.04777  32.59172  32.59172
           X           -0.11778   0.00000   0.99304
           Y            0.31290   0.94906   0.03711
           Z            0.94245  -0.31509   0.11178
 This molecule is an asymmetric top.
 Rotational symmetry number  1.
 Rotational temperatures (Kelvin)      7.18920     2.65754     2.65754
 Rotational constants (GHZ):         149.79883    55.37422    55.37422
    1 imaginary frequencies ignored.
 Zero-point vibrational energy     119325.7 (Joules/Mol)
                                   28.51954 (Kcal/Mol)
 Warning -- explicit consideration of   2 degrees of freedom as
           vibrations may cause significant error
 Vibrational temperatures:    636.45   636.45  1265.89  1265.89  1431.46
          (Kelvin)           2150.23  2150.23  4602.68  4847.02  4858.42
                             4858.43

 Zero-point correction=                           0.045449 (Hartree/Particle)
 Thermal correction to Energy=                    0.048986
 Thermal correction to Enthalpy=                  0.049930
 Thermal correction to Gibbs Free Energy=         0.023760
 Sum of electronic and zero-point Energies=            -40.784977
 Sum of electronic and thermal Energies=               -40.781440
 Sum of electronic and thermal Enthalpies=             -40.780495
 Sum of electronic and thermal Free Energies=          -40.806666

                     E (Thermal)             CV                S
                      KCal/Mol        Cal/Mol-Kelvin    Cal/Mol-Kelvin
 Total                   30.739             10.309             55.081
 Electronic               0.000              0.000              1.377
 Translational            0.889              2.981             34.443
 Rotational               0.889              2.981             17.199
 Vibrational             28.962              4.348              2.061
 Vibration  1             0.802              1.378              0.819
 Vibration  2             0.802              1.378              0.819

 Normal termination of Gaussian 03 at Wed Apr 17 22:15:58 2013.
