 Gaussian 09, Revision A.02,
 Gaussian 09:  AM64L-G09RevA.02 11-Jun-2009

 --------------------------------------------------
 #P M06 6-311G** FREQ # GFINPUT IOP(6/7=3) POP=FULL
 --------------------------------------------------

 -----------------------------------
 reverse IRC, from TS reverse1 freq1
 -----------------------------------
 Symbolic Z-matrix:
 Charge =  0 Multiplicity = 2

                         Standard orientation:
 ---------------------------------------------------------------------
 Center     Atomic      Atomic             Coordinates (Angstroms)
 Number     Number       Type             X           Y           Z
 ---------------------------------------------------------------------
      1          7           0        0.197564   -0.116955    0.004004
      2          7           0        1.313100    0.099933    0.020504
      3          7           0       -1.040786   -0.061942   -0.120861
      4          1           0       -1.500518   -0.761619    0.457601
      5          1           0       -1.788625    1.314365    0.216871
 ---------------------------------------------------------------------

 SCF Done:  E(UM06) =  -165.224009521     A.U. after   19 cycles

 The electronic state is 2-A.
 Alpha  occ. eigenvalues --  -14.55884 -14.46764 -14.46687  -1.16984  -1.00596
 Alpha  occ. eigenvalues --   -0.65863  -0.56171  -0.53943  -0.47946  -0.40402
 Alpha  occ. eigenvalues --   -0.32487  -0.19854
 Alpha virt. eigenvalues --   -0.03641   0.00825   0.03921   0.21880   0.26161
 Alpha virt. eigenvalues --    0.36098   0.41993   0.45899   0.50256   0.53413
 Alpha virt. eigenvalues --    0.60001   0.64681   0.67772   0.68846   0.73866

  Beta  occ. eigenvalues --  -14.55804 -14.46555 -14.46261  -1.16084  -0.99762
  Beta  occ. eigenvalues --   -0.65634  -0.54447  -0.53539  -0.46462  -0.37918
  Beta  occ. eigenvalues --   -0.31651
  Beta virt. eigenvalues --   -0.06669  -0.01980   0.02391   0.05399   0.22374
  Beta virt. eigenvalues --    0.34878   0.36679   0.41928   0.45896   0.50257
  Beta virt. eigenvalues --    0.54316   0.60224   0.65259   0.68295   0.68877

 Mulliken atomic charges:
              1
     1  N    0.200952
     2  N   -0.129021
     3  N   -0.310431
     4  H    0.269822
     5  H   -0.031321
 Sum of Mulliken atomic charges =  -0.00000

 Dipole moment (field-independent basis, Debye):
    X=             -1.0074    Y=             -1.6043    Z=              0.9197  Tot=              2.1058
 Quadrupole moment (field-independent basis, Debye-Ang):
   XX=            -20.4662   YY=            -17.8104   ZZ=            -17.8426
   XY=              2.4709   XZ=             -1.5352   YZ=             -1.0454

  Exact polarizability:  54.115 -10.931  24.763  -2.408   1.131  11.628
 Approx polarizability: 110.468 -14.965  31.305  -1.117   1.095  15.051

 ******    1 imaginary frequencies (negative Signs) ******

                     1                      2                      3
                     A                      A                      A
 Frequencies -- -1316.7706               442.3791               480.2733
 Red. masses --     1.2043                 1.3034                 2.3921
 Frc consts  --     1.2302                 0.1503                 0.3251
 IR Inten    --   616.3321                21.2005                29.1696

                     4                      5                      6
                     A                      A                      A
 Frequencies --   597.1735               726.8962              1194.9096
 Red. masses --     4.7285                 1.4425                 2.3557
 Frc consts  --     0.9935                 0.4491                 1.9817
 IR Inten    --     7.1856                52.2533                81.1288

                     7                      8                      9
                     A                      A                      A
 Frequencies --  1288.0606              2238.6888              3535.1428
 Red. masses --     1.7324                11.7232                 1.0766
 Frc consts  --     1.6934                34.6167                 7.9271
 IR Inten    --    26.7286               414.7120                61.1414

 - Thermochemistry -
 -------------------
 Temperature   298.150 Kelvin.  Pressure   1.00000 Atm.
 Atom     1 has atomic number  7 and mass  14.00307

 Molecular mass:    44.02487 amu.
 Principal axes and moments of inertia in atomic units:
                           1         2         3
     Eigenvalues --    11.06575 162.86171 170.85078
           X            0.99926  -0.02946  -0.02468
           Y            0.02920   0.99952  -0.01057
           Z            0.02498   0.00985   0.99964
 This molecule is an asymmetric top.
 Rotational symmetry number  1.
 Rotational temperatures (Kelvin)      7.82720     0.53182     0.50696
 Rotational constants (GHZ):         163.09253    11.08143    10.56326
    1 imaginary frequencies ignored.
 Zero-point vibrational energy      62825.0 (Joules/Mol)
                                   15.01554 (Kcal/Mol)
 Warning -- explicit consideration of   3 degrees of freedom as
           vibrations may cause significant error
 Vibrational temperatures:    636.48   691.01   859.20  1045.84  1719.21
          (Kelvin)           1853.23  3220.97  5086.28

 Zero-point correction=                           0.023929 (Hartree/Particle)
 Thermal correction to Energy=                    0.027564
 Thermal correction to Enthalpy=                  0.028508
 Thermal correction to Gibbs Free Energy=        -0.000637
 Sum of electronic and zero-point Energies=           -165.200081
 Sum of electronic and thermal Energies=              -165.196446
 Sum of electronic and thermal Enthalpies=            -165.195502
 Sum of electronic and thermal Free Energies=         -165.224646

                     E (Thermal)             CV                S
                      KCal/Mol        Cal/Mol-Kelvin    Cal/Mol-Kelvin
 Total                   17.296             10.816             61.340
 Electronic               0.000              0.000              1.377
 Translational            0.889              2.981             37.273
 Rotational               0.889              2.981             20.360
 Vibrational             15.519              4.855              2.330
 Vibration     1          0.802              1.378              0.819
 Vibration     2          0.837              1.294              0.709
 Vibration     3          0.955              1.038              0.455

 Normal termination of Gaussian 09 at Fri Apr 25 17:09:51 2014.
