 Gaussian 09, Revision A.02,
 Gaussian 09:  AM64L-G09RevA.02 11-Jun-2009

 --------------------------------------------------
 #P M06 6-311G** FREQ # GFINPUT IOP(6/7=3) POP=FULL
 --------------------------------------------------

 ----------------------------------
 reverse IRC, from TS reverse1 freq
 ----------------------------------
 Symbolic Z-matrix:
 Charge =  0 Multiplicity = 2

                         Standard orientation:
 ---------------------------------------------------------------------
 Center     Atomic      Atomic             Coordinates (Angstroms)
 Number     Number       Type             X           Y           Z
 ---------------------------------------------------------------------
      1          7           0        0.199737   -0.199054   -0.011987
      2          7           0        1.328556    0.105671    0.020286
      3          7           0       -1.092567    0.059748   -0.084533
      4          1           0       -1.590773   -0.731037    0.301678
      5          1           0       -1.459309    0.966473    0.231962
 ---------------------------------------------------------------------

 SCF Done:  E(UM06) =  -165.279779323     A.U. after   19 cycles

 The electronic state is 2-A.
 Alpha  occ. eigenvalues --  -14.48445 -14.46370 -14.42002  -1.10689  -0.96591
 Alpha  occ. eigenvalues --   -0.67786  -0.58430  -0.48261  -0.45869  -0.41580
 Alpha  occ. eigenvalues --   -0.31607  -0.16331
 Alpha virt. eigenvalues --    0.00366   0.02695   0.07400   0.19169   0.33708
 Alpha virt. eigenvalues --    0.35079   0.44758   0.49256   0.52182   0.58258
 Alpha virt. eigenvalues --    0.61025   0.65865   0.69156   0.70353   0.73460

  Beta  occ. eigenvalues --  -14.47903 -14.46201 -14.40812  -1.08745  -0.94615
  Beta  occ. eigenvalues --   -0.66273  -0.57447  -0.47366  -0.42034  -0.37610
  Beta  occ. eigenvalues --   -0.30806
  Beta virt. eigenvalues --   -0.02722   0.01712   0.03377   0.08005   0.20203
  Beta virt. eigenvalues --    0.33902   0.35140   0.45064   0.49507   0.52294
  Beta virt. eigenvalues --    0.59243   0.61289   0.66184   0.69935   0.71658

 Mulliken atomic charges:
              1
     1  N    0.002639
     2  N   -0.174230
     3  N   -0.299486
     4  H    0.265320
     5  H    0.205757
 Sum of Mulliken atomic charges =  -0.00000

 Dipole moment (field-independent basis, Debye):
    X=             -3.4888    Y=              0.1616    Z=              1.0097  Tot=              3.6355
 Quadrupole moment (field-independent basis, Debye-Ang):
   XX=            -17.6116   YY=            -15.9868   ZZ=            -17.6714
   XY=             -0.0030   XZ=             -1.8227   YZ=             -0.1236

  Exact polarizability:  38.912  -1.513  17.538  -0.829   0.523  11.402
 Approx polarizability:  65.381  -0.194  22.664   0.097   0.763  14.838

                     1                      2                      3
                     A                      A                      A
 Frequencies --   249.9640               421.8425               607.1477
 Red. masses --     4.6246                 2.4468                 1.5444
 Frc consts  --     0.1702                 0.2565                 0.3354
 IR Inten    --    36.0045                13.6348               209.1581

                     4                      5                      6
                     A                      A                      A
 Frequencies --  1014.1784              1248.1784              1617.3006
 Red. masses --     3.6237                 1.3319                 1.0864
 Frc consts  --     2.1960                 1.2226                 1.6743
 IR Inten    --    27.2185                17.1711                26.8018

                     7                      8                      9
                     A                      A                      A
 Frequencies --  1970.6571              3287.3275              3601.9914
 Red. masses --    10.1027                 1.0580                 1.0838
 Frc consts  --    23.1159                 6.7361                 8.2847
 IR Inten    --   105.4886                55.3562                56.8464

 - Thermochemistry -
 -------------------
 Temperature   298.150 Kelvin.  Pressure   1.00000 Atm.
 Atom     1 has atomic number  7 and mass  14.00307

 Molecular mass:    44.02487 amu.
 Principal axes and moments of inertia in atomic units:
                           1         2         3
     Eigenvalues --     8.82130 166.86779 174.03373
           X            0.99981  -0.00581  -0.01838
           Y            0.00591   0.99997   0.00560
           Z            0.01835  -0.00571   0.99982
 This molecule is an asymmetric top.
 Rotational symmetry number  1.
 Rotational temperatures (Kelvin)      9.81871     0.51906     0.49768
 Rotational constants (GHZ):         204.58901    10.81540    10.37007
 Zero-point vibrational energy      83849.8 (Joules/Mol)
                                   20.04058 (Kcal/Mol)
 Warning -- explicit consideration of   3 degrees of freedom as
           vibrations may cause significant error
 Vibrational temperatures:    359.64   606.94   873.55  1459.17  1795.85
          (Kelvin)           2326.93  2835.33  4729.73  5182.46

 Zero-point correction=                           0.031937 (Hartree/Particle)
 Thermal correction to Energy=                    0.035753
 Thermal correction to Enthalpy=                  0.036697
 Thermal correction to Gibbs Free Energy=         0.007233
 Sum of electronic and zero-point Energies=           -165.247843
 Sum of electronic and thermal Energies=              -165.244026
 Sum of electronic and thermal Enthalpies=            -165.243082
 Sum of electronic and thermal Free Energies=         -165.272546

                     E (Thermal)             CV                S
                      KCal/Mol        Cal/Mol-Kelvin    Cal/Mol-Kelvin
 Total                   22.435             10.764             62.012
 Electronic               0.000              0.000              1.377
 Translational            0.889              2.981             37.273
 Rotational               0.889              2.981             20.177
 Vibrational             20.658              4.802              3.185
 Vibration     1          0.663              1.763              1.731
 Vibration     2          0.784              1.423              0.886
 Vibration     3          0.966              1.017              0.438

 Normal termination of Gaussian 09 at Fri Apr 25 17:10:12 2014.
