 Output coordinates in angstroms (scale by  1.889725989 to convert to a.u.)

  No.       Tag          Charge          X              Y              Z
 ---- ---------------- ---------- -------------- -------------- --------------
    1 H                    1.0000     0.00000000     0.00000000     0.00000000

         Total DFT energy =       -0.467532582999

                    DFT Final Alpha Molecular Orbital Analysis
                    ------------------------------------------

 Vector    1  Occ=1.000000D+00  E=-2.413876D-01

 Vector    1  Occ=0.000000D+00  E=-4.665818D-01

 Total times  cpu:        0.0s     wall:        0.2s
