 Output coordinates in angstroms (scale by  1.889725989 to convert to a.u.)

  No.       Tag          Charge          X              Y              Z
 ---- ---------------- ---------- -------------- -------------- --------------
    1 C                    6.0000    -0.10717818     0.63235348     0.00000000
    2 N                    7.0000    -0.05871738    -0.58803995     0.00000000
    3 H                    1.0000     1.05409074     0.32215876     0.00000000

         Total SCF energy =    -91.564851020984

 Vector    2  Occ=2.000000D+00  E=-1.104989D+01

 Vector    3  Occ=2.000000D+00  E=-1.235151D+00

 Vector    4  Occ=2.000000D+00  E=-6.434571D-01

 Vector    5  Occ=2.000000D+00  E=-5.428974D-01

 Vector    6  Occ=2.000000D+00  E=-4.545270D-01

 Vector    7  Occ=2.000000D+00  E=-3.964024D-01

 Vector    8  Occ=0.000000D+00  E= 2.440662D-01

 Vector    9  Occ=0.000000D+00  E= 3.106754D-01

 Vector   10  Occ=0.000000D+00  E= 4.973726D-01

 Vector   11  Occ=0.000000D+00  E= 1.016658D+00

       Multipole analysis of the density wrt the origin
       ------------------------------------------------

     L   x y z        total         open         nuclear
     -   - - -        -----         ----         -------
     0   0 0 0     -0.000000      0.000000     14.000000

     1   1 0 0      0.472187      0.000000      0.000000
     1   0 1 0      0.005456      0.000000     -0.000000
     1   0 0 1      0.000000      0.000000      0.000000

     2   2 0 0     -6.604039      0.000000      4.300148
     2   1 1 0      0.498144      0.000000      0.623632
     2   1 0 1     -0.000000      0.000000      0.000000
     2   0 2 0    -10.179985      0.000000     17.582309
     2   0 1 1      0.000000      0.000000      0.000000

 Zero-Point correction to Energy  =    7.397 kcal/mol  (  0.011788 au)
 Thermal correction to Energy     =    9.174 kcal/mol  (  0.014620 au)
 Thermal correction to Enthalpy   =    9.766 kcal/mol  (  0.015564 au)
 Total Entropy                    =   52.270 cal/mol-K
   - Translational                =   35.800 cal/mol-K (mol. weight =  27.0109)
   - Rotational                   =   16.469 cal/mol-K (symmetry #  =        1)
   - Vibrational                  =    0.001 cal/mol-K
   - Translational                  =    2.979 cal/mol-K
   - Rotational                     =    2.979 cal/mol-K
   - Vibrational                    =    0.008 cal/mol-K
 P.Frequency    -1248.64       -0.00       -0.00       -0.00        0.00        0.00
 P.Frequency        0.00     2105.63     3071.37

 Normal Eigenvalue ||           Projected Infra Red Intensities
  Mode   [cm**-1]  || [atomic units] [(debye/angs)**2] [(KM/mol)] [arbitrary]
 ------ ---------- || -------------- ----------------- ---------- -----------
    1    -1248.638 ||    0.008537           0.197         8.322       3.895
    2       -0.000 ||    0.000026           0.001         0.025       0.012
    3       -0.000 ||    0.003126           0.072         3.047       1.426
    4       -0.000 ||    0.002521           0.058         2.458       1.150
    5        0.000 ||    0.002131           0.049         2.077       0.972
    6        0.000 ||    0.000237           0.005         0.232       0.108
    7        0.000 ||    0.046972           1.084        45.791      21.432
    8     2105.625 ||    0.041521           0.958        40.477      18.945
    9     3071.365 ||    0.092176           2.127        89.858      42.058
 ----------------------------------------------------------------------------

 Total times  cpu:        0.3s     wall:        0.4s
