 Gaussian 03, Revision C.02,
 Gaussian 03:  AM64L-G03RevC.02 12-Jun-2004

 -------------------------------------------------
 #P MP2 6-31G** iop(6/7=3) gfinput pop=full # freq
 -------------------------------------------------

 ---
 job
 ---
 Symbolic Z-matrix:
 Charge =  0 Multiplicity = 2

                         Standard orientation:
 ---------------------------------------------------------------------
 Center     Atomic     Atomic              Coordinates (Angstroms)
 Number     Number      Type              X           Y           Z
 ---------------------------------------------------------------------
    1          6             0       -0.000208    0.007530   -0.272854
    2          1             0        1.046612   -0.093631   -0.520946
    3          1             0       -0.430391    0.974619   -0.490337
    4          1             0       -0.617400   -0.838162   -0.540237
    5          1             0        0.000896   -0.032530    1.178440
    6          1             0        0.001532   -0.055478    2.010204
 ---------------------------------------------------------------------

 SCF Done:  E(UHF) =  -40.6640032831     A.U. after   13 cycles
 E2 =    -0.1640122360D+00 EUMP2 =    -0.40828015519033D+02

 The electronic state is 2-A.
 Alpha  occ. eigenvalues --  -11.24052  -0.97045  -0.62844  -0.57909  -0.57909
 Alpha  occ. eigenvalues --   -0.35403
 Alpha virt. eigenvalues --    0.25392   0.31681   0.31681   0.34968   0.71217
 Alpha virt. eigenvalues --    0.71217   0.74863   0.88808   1.13936   1.13936
 Alpha virt. eigenvalues --    1.17212   1.24470   1.40859   1.63117   1.63117

  Beta  occ. eigenvalues --  -11.21821  -0.89601  -0.56483  -0.56483  -0.54732
  Beta virt. eigenvalues --    0.11795   0.26850   0.32859   0.32859   0.39931
  Beta virt. eigenvalues --    0.71842   0.71842   0.85662   0.93651   1.15194
  Beta virt. eigenvalues --    1.15194   1.19400   1.26415   1.43788   1.67793

 Mulliken atomic charges:
              1
     1  C   -0.383476
     2  H    0.139917
     3  H    0.139917
     4  H    0.139917
     5  H   -0.021774
     6  H   -0.014500
 Sum of Mulliken charges=   0.00000

 Dipole moment (field-independent basis, Debye):
    X=    -0.0007    Y=     0.0237    Z=    -0.8577  Tot=     0.8580
 Quadrupole moment (field-independent basis, Debye-Ang):
   XX=    -9.3110   YY=    -9.3125   ZZ=   -11.3061
   XY=     0.0000   XZ=    -0.0015   YZ=     0.0551

  Exact polarizability:  12.497   0.000  12.507   0.010  -0.373  26.024
 Approx polarizability:  10.059   0.000  10.064   0.005  -0.179  16.537

 ******    1 imaginary frequencies (negative Signs) ******

                     1                      2                      3
                     A                      A                      A
 Frequencies -- -1242.2258               538.1267               538.1315
 Red. masses --     1.1856                 1.0483                 1.0483
 Frc consts  --     1.0780                 0.1788                 0.1789
 IR Inten    --     2.1509                 1.1786                 1.1786

                     4                      5                      6
                     A                      A                      A
 Frequencies --  1086.7276              1093.4453              1093.4457
 Red. masses --     1.0929                 1.0380                 1.0380
 Frc consts  --     0.7604                 0.7312                 0.7312
 IR Inten    --     6.3914                 0.1992                 0.1992

                     7                      8                      9
                     A                      A                      A
 Frequencies --  1498.5914              1498.5927              2458.3411
 Red. masses --     1.0822                 1.0822                 1.0433
 Frc consts  --     1.4320                 1.4320                 3.7149
 IR Inten    --     2.4677                 2.4677                41.5214

                    10                     11                     12
                     A                      A                      A
 Frequencies --  3192.4154              3360.0432              3360.0486
 Red. masses --     1.0171                 1.1132                 1.1132
 Frc consts  --     6.1071                 7.4047                 7.4048
 IR Inten    --     0.2620                 8.5370                 8.5369

 - Thermochemistry -
 -------------------
 Temperature   298.150 Kelvin.  Pressure   1.00000 Atm.
 Atom  1 has atomic number  6 and mass  12.00000

 Molecular mass:    17.03913 amu.
 Principal axes and moments of inertia in atomic units:
                           1         2         3
     EIGENVALUES --    11.96179  31.06659  31.06660
           X            0.00076   0.00000   1.00000
           Y           -0.02759   0.99962   0.00002
           Z            0.99962   0.02759  -0.00076
 This molecule is an asymmetric top.
 Rotational symmetry number  1.
 Rotational temperatures (Kelvin)      7.24087     2.78801     2.78800
 Rotational constants (GHZ):         150.87550    58.09267    58.09265
    1 imaginary frequencies ignored.
 Zero-point vibrational energy     117939.3 (Joules/Mol)
                                   28.18817 (Kcal/Mol)
 Warning -- explicit consideration of   2 degrees of freedom as
           vibrations may cause significant error
 Vibrational temperatures:    774.24   774.25  1563.56  1573.22  1573.22
          (Kelvin)           2156.14  2156.14  3537.00  4593.17  4834.35
                             4834.35

 Zero-point correction=                           0.044921 (Hartree/Particle)
 Thermal correction to Energy=                    0.048235
 Thermal correction to Enthalpy=                  0.049180
 Thermal correction to Gibbs Free Energy=         0.023392
 Sum of electronic and zero-point Energies=            -40.783095
 Sum of electronic and thermal Energies=               -40.779780
 Sum of electronic and thermal Enthalpies=             -40.778836
 Sum of electronic and thermal Free Energies=          -40.804623

                     E (Thermal)             CV                S
                      KCal/Mol        Cal/Mol-Kelvin    Cal/Mol-Kelvin
 Total                   30.268              9.309             54.274
 Electronic               0.000              0.000              1.377
 Translational            0.889              2.981             34.443
 Rotational               0.889              2.981             17.097
 Vibrational             28.491              3.347              1.356
 Vibration  1             0.893              1.166              0.569
 Vibration  2             0.893              1.166              0.569

 Normal termination of Gaussian 03 at Wed Apr 17 22:12:59 2013.
