 Gaussian 09, Revision A.02,
 Gaussian 09:  AM64L-G09RevA.02 11-Jun-2009

 ------------------------------------------------------
 #P M06 6-311G** FREQ OPT # GFINPUT IOP(6/7=3) POP=FULL
 ------------------------------------------------------

 ---------
 product 1
 ---------
 Symbolic Z-matrix:
 Charge =  0 Multiplicity = 1

 SCF Done:  E(RM06) =  -109.462690570     A.U. after   10 cycles
 SCF Done:  E(RM06) =  -109.487842982     A.U. after   10 cycles
 SCF Done:  E(RM06) =  -109.487855021     A.U. after    6 cycles
 Optimization completed.
    -- Stationary point found.
 Normal termination of Gaussian 09 at Fri Apr 25 16:31:45 2014.

 ----------------------------------------------------------------------
 #P Geom=AllCheck Guess=TCheck SCRF=Check Test GenChk RM06/6-311G(d,p)
 Freq
 ----------------------------------------------------------------------

 product 1
 ---------
 Redundant internal coordinates taken from checkpoint file:
 /scratch_l/henon/n2_14474/Gau-14491.chk
 Charge =  0 Multiplicity = 1

                         Standard orientation:
 ---------------------------------------------------------------------
 Center     Atomic      Atomic             Coordinates (Angstroms)
 Number     Number       Type             X           Y           Z
 ---------------------------------------------------------------------
      1          7           0        0.000000    0.000000    0.547177
      2          7           0        0.000000    0.000000   -0.547177
 ---------------------------------------------------------------------

 SCF Done:  E(RM06) =  -109.487855021     A.U. after    1 cycles

 The electronic state is 1-SGG.
 Alpha  occ. eigenvalues --  -14.48676 -14.48510  -1.13811  -0.56765  -0.48702
 Alpha  occ. eigenvalues --   -0.48702  -0.43824
 Alpha virt. eigenvalues --   -0.01349  -0.01349   0.39290   0.50688   0.50688
 Alpha virt. eigenvalues --    0.51529   0.61674   0.66258   0.66258   0.76662
 Alpha virt. eigenvalues --    1.09243   1.68178   1.68179   1.70703   1.70703

 Mulliken atomic charges:
              1
     1  N   -0.000000
     2  N   -0.000000
 Sum of Mulliken atomic charges =  -0.00000

 Dipole moment (field-independent basis, Debye):
    X=              0.0000    Y=             -0.0000    Z=              0.0000  Tot=              0.0000
 Quadrupole moment (field-independent basis, Debye-Ang):
   XX=            -10.0177   YY=            -10.0177   ZZ=            -11.7596
   XY=              0.0000   XZ=              0.0000   YZ=             -0.0000

  Exact polarizability:   6.113   0.000   6.113  -0.000   0.000  13.960
 Approx polarizability:   7.841   0.000   7.841  -0.000   0.000  25.695

                     1
                    SGG
 Frequencies --  2464.2481
 Red. masses --    14.0031
 Frc consts  --    50.1005
 IR Inten    --     0.0000

 - Thermochemistry -
 -------------------
 Temperature   298.150 Kelvin.  Pressure   1.00000 Atm.
 Atom     1 has atomic number  7 and mass  14.00307

 Molecular mass:    28.00615 amu.
 Principal axes and moments of inertia in atomic units:
                           1         2         3
     Eigenvalues --     0.00000  29.94378  29.94378
           X           -0.00000   1.00000   0.00000
           Y            0.00000   0.00000   1.00000
           Z            1.00000   0.00000   0.00000
 This molecule is a prolate symmetric top.
 Rotational symmetry number  2.
 Rotational temperature (Kelvin)      2.89255
 Rotational constant (GHZ):          60.270987
 Zero-point vibrational energy      14739.5 (Joules/Mol)
                                    3.52282 (Kcal/Mol)
 Vibrational temperatures:   3545.50
          (Kelvin)

 Zero-point correction=                           0.005614 (Hartree/Particle)
 Thermal correction to Energy=                    0.007975
 Thermal correction to Enthalpy=                  0.008919
 Thermal correction to Gibbs Free Energy=        -0.012817
 Sum of electronic and zero-point Energies=           -109.482241
 Sum of electronic and thermal Energies=              -109.479881
 Sum of electronic and thermal Enthalpies=            -109.478936
 Sum of electronic and thermal Free Energies=         -109.500672

                     E (Thermal)             CV                S
                      KCal/Mol        Cal/Mol-Kelvin    Cal/Mol-Kelvin
 Total                    5.004              4.970             45.746
 Electronic               0.000              0.000              0.000
 Translational            0.889              2.981             35.924
 Rotational               0.592              1.987              9.821
 Vibrational              3.523              0.002              0.000

 Optimization completed.
    -- Stationary point found.
 Normal termination of Gaussian 09 at Fri Apr 25 16:31:48 2014.
