 Gaussian 09, Revision A.02,
 Gaussian 09:  AM64L-G09RevA.02 11-Jun-2009

 --------------------------------------------------
 #P M06 6-311G** FREQ # GFINPUT IOP(6/7=3) POP=FULL
 --------------------------------------------------

 ----------------------------------
 reverse IRC, from TS reverse1 freq
 ----------------------------------
 Symbolic Z-matrix:
 Charge =  0 Multiplicity = 2

                         Standard orientation:
 ---------------------------------------------------------------------
 Center     Atomic      Atomic             Coordinates (Angstroms)
 Number     Number       Type             X           Y           Z
 ---------------------------------------------------------------------
      1          7           0        0.194010   -0.129096   -0.002892
      2          7           0        1.317548    0.089751    0.022102
      3          7           0       -1.055184   -0.018682   -0.112638
      4          1           0       -1.523133   -0.751550    0.412921
      5          1           0       -1.671480    1.157738    0.241075
 ---------------------------------------------------------------------

 SCF Done:  E(UM06) =  -165.236234036     A.U. after   20 cycles

 The electronic state is 2-A.
 Alpha  occ. eigenvalues --  -14.52456 -14.47852 -14.44536  -1.14867  -0.99336
 Alpha  occ. eigenvalues --   -0.66315  -0.56491  -0.51964  -0.46661  -0.42046
 Alpha  occ. eigenvalues --   -0.32285  -0.16995
 Alpha virt. eigenvalues --   -0.02215   0.01893   0.04513   0.21549   0.27244
 Alpha virt. eigenvalues --    0.35426   0.42453   0.47250   0.50978   0.55103
 Alpha virt. eigenvalues --    0.60200   0.65318   0.68865   0.69458   0.73763

  Beta  occ. eigenvalues --  -14.52195 -14.47760 -14.43678  -1.13344  -0.97874
  Beta  occ. eigenvalues --   -0.65777  -0.54184  -0.51315  -0.44137  -0.38938
  Beta  occ. eigenvalues --   -0.31619
  Beta virt. eigenvalues --   -0.05482  -0.00380   0.03002   0.06508   0.22187
  Beta virt. eigenvalues --    0.31665   0.35434   0.42467   0.47199   0.50962
  Beta virt. eigenvalues --    0.55955   0.60328   0.65901   0.69504   0.69924

 Mulliken atomic charges:
              1
     1  N    0.128637
     2  N   -0.155243
     3  N   -0.296855
     4  H    0.273787
     5  H    0.049674
 Sum of Mulliken atomic charges =  -0.00000

 Dipole moment (field-independent basis, Debye):
    X=             -2.1109    Y=             -0.9400    Z=              0.9382  Tot=              2.4939
 Quadrupole moment (field-independent basis, Debye-Ang):
   XX=            -19.3806   YY=            -17.0541   ZZ=            -17.8015
   XY=              1.4358   XZ=             -1.6583   YZ=             -0.7571

  Exact polarizability:  55.121 -12.735  25.639  -3.240   1.967  11.786
 Approx polarizability: 108.346 -21.517  35.072  -3.480   2.710  15.386

 ******    1 imaginary frequencies (negative Signs) ******

                     1                      2                      3
                     A                      A                      A
 Frequencies -- -1423.2861               399.0968               493.5768
 Red. masses --     1.2799                 4.1914                 2.7952
 Frc consts  --     1.5276                 0.3933                 0.4012
 IR Inten    --  1835.5245                39.5548                23.1885

                     4                      5                      6
                     A                      A                      A
 Frequencies --   795.8754              1018.5913              1292.8296
 Red. masses --     1.6314                 1.5100                 2.5148
 Frc consts  --     0.6088                 0.9231                 2.4765
 IR Inten    --    85.0736                53.5790                 0.8335

                     7                      8                      9
                     A                      A                      A
 Frequencies --  1402.9670              2192.4163              3544.3750
 Red. masses --     1.0931                11.0563                 1.0763
 Frc consts  --     1.2677                31.3118                 7.9662
 IR Inten    --    41.8868               280.1541                60.5245

 - Thermochemistry -
 -------------------
 Temperature   298.150 Kelvin.  Pressure   1.00000 Atm.
 Atom     1 has atomic number  7 and mass  14.00307

 Molecular mass:    44.02487 amu.
 Principal axes and moments of inertia in atomic units:
                           1         2         3
     Eigenvalues --     9.39919 163.45785 170.14352
           X            0.99954  -0.01894  -0.02375
           Y            0.01887   0.99982  -0.00303
           Z            0.02381   0.00258   0.99971
 This molecule is an asymmetric top.
 Rotational symmetry number  1.
 Rotational temperatures (Kelvin)      9.21503     0.52988     0.50906
 Rotational constants (GHZ):         192.01034    11.04102    10.60717
    1 imaginary frequencies ignored.
 Zero-point vibrational energy      66630.4 (Joules/Mol)
                                   15.92504 (Kcal/Mol)
 Warning -- explicit consideration of   2 degrees of freedom as
           vibrations may cause significant error
 Vibrational temperatures:    574.21   710.15  1145.09  1465.52  1860.09
          (Kelvin)           2018.55  3154.39  5099.56

 Zero-point correction=                           0.025378 (Hartree/Particle)
 Thermal correction to Energy=                    0.028883
 Thermal correction to Enthalpy=                  0.029827
 Thermal correction to Gibbs Free Energy=         0.000924
 Sum of electronic and zero-point Energies=           -165.210856
 Sum of electronic and thermal Energies=              -165.207351
 Sum of electronic and thermal Enthalpies=            -165.206407
 Sum of electronic and thermal Free Energies=         -165.235310

                     E (Thermal)             CV                S
                      KCal/Mol        Cal/Mol-Kelvin    Cal/Mol-Kelvin
 Total                   18.124              9.975             60.831
 Electronic               0.000              0.000              1.377
 Translational            0.889              2.981             37.273
 Rotational               0.889              2.981             20.197
 Vibrational             16.347              4.013              1.984
 Vibration     1          0.765              1.472              0.966
 Vibration     2          0.849              1.264              0.674

 Normal termination of Gaussian 09 at Fri Apr 25 17:09:51 2014.
