 Gaussian 09, Revision A.02,
 Gaussian 09:  AM64L-G09RevA.02 11-Jun-2009

 --------------------------------------------------
 #P M06 6-311G** FREQ # GFINPUT IOP(6/7=3) POP=FULL
 --------------------------------------------------

 ----------------------------------
 reverse IRC, from TS reverse1 freq
 ----------------------------------
 Symbolic Z-matrix:
 Charge =  0 Multiplicity = 2

                         Standard orientation:
 ---------------------------------------------------------------------
 Center     Atomic      Atomic             Coordinates (Angstroms)
 Number     Number       Type             X           Y           Z
 ---------------------------------------------------------------------
      1          7           0        0.190971   -0.142368   -0.011451
      2          7           0        1.323334    0.083114    0.023602
      3          7           0       -1.071086    0.023282   -0.099986
      4          1           0       -1.543037   -0.750761    0.356620
      5          1           0       -1.559500    1.002559    0.258227
 ---------------------------------------------------------------------

 SCF Done:  E(UM06) =  -165.260859390     A.U. after   20 cycles

 The electronic state is 2-A.
 Alpha  occ. eigenvalues --  -14.49011 -14.47643 -14.42053  -1.12450  -0.97895
 Alpha  occ. eigenvalues --   -0.67363  -0.57817  -0.49810  -0.45392  -0.41913
 Alpha  occ. eigenvalues --   -0.31846  -0.15047
 Alpha virt. eigenvalues --   -0.00089   0.02729   0.06424   0.21064   0.31420
 Alpha virt. eigenvalues --    0.34991   0.43196   0.48720   0.51707   0.57242
 Alpha virt. eigenvalues --    0.60844   0.66119   0.70068   0.70338   0.74075

  Beta  occ. eigenvalues --  -14.48536 -14.47566 -14.40939  -1.10581  -0.95980
  Beta  occ. eigenvalues --   -0.66287  -0.56203  -0.49023  -0.41951  -0.38063
  Beta  occ. eigenvalues --   -0.31151
  Beta virt. eigenvalues --   -0.02765   0.01326   0.03535   0.07924   0.21937
  Beta virt. eigenvalues --    0.32041   0.34938   0.43335   0.48739   0.51723
  Beta virt. eigenvalues --    0.58083   0.60951   0.66494   0.70655   0.71555

 Mulliken atomic charges:
              1
     1  N    0.046267
     2  N   -0.184378
     3  N   -0.288852
     4  H    0.270816
     5  H    0.156148
 Sum of Mulliken atomic charges =  -0.00000

 Dipole moment (field-independent basis, Debye):
    X=             -3.2698    Y=             -0.1766    Z=              1.0340  Tot=              3.4340
 Quadrupole moment (field-independent basis, Debye-Ang):
   XX=            -18.2374   YY=            -16.2381   ZZ=            -17.6210
   XY=              0.3415   XZ=             -1.8812   YZ=             -0.3497

  Exact polarizability:  45.557  -6.677  20.513  -2.119   1.395  11.614
 Approx polarizability:  78.449  -8.939  26.550  -1.681   1.853  15.154

 ******    1 imaginary frequencies (negative Signs) ******

                     1                      2                      3
                     A                      A                      A
 Frequencies --  -373.1704               416.2191               888.2226
 Red. masses --     7.8106                 2.8325                 1.6481
 Frc consts  --     0.6408                 0.2891                 0.7661
 IR Inten    --    25.4874                39.5277               176.0949

                     4                      5                      6
                     A                      A                      A
 Frequencies --  1080.9627              1304.2384              1590.6334
 Red. masses --     3.3572                 1.2945                 1.0673
 Frc consts  --     2.3113                 1.2974                 1.5910
 IR Inten    --    72.3945                88.9877                70.2475

                     7                      8                      9
                     A                      A                      A
 Frequencies --  1891.0544              2154.5783              3528.5787
 Red. masses --     1.1102                 8.0665                 1.0748
 Frc consts  --     2.3391                22.0628                 7.8848
 IR Inten    --   579.3327                62.5559                47.4140

 - Thermochemistry -
 -------------------
 Temperature   298.150 Kelvin.  Pressure   1.00000 Atm.
 Atom     1 has atomic number  7 and mass  14.00307

 Molecular mass:    44.02487 amu.
 Principal axes and moments of inertia in atomic units:
                           1         2         3
     Eigenvalues --     8.13765 164.53155 170.41932
           X            0.99972  -0.00953  -0.02178
           Y            0.00958   0.99995   0.00231
           Z            0.02176  -0.00252   0.99976
 This molecule is an asymmetric top.
 Rotational symmetry number  1.
 Rotational temperatures (Kelvin)     10.64359     0.52643     0.50824
 Rotational constants (GHZ):         221.77670    10.96897    10.59000
    1 imaginary frequencies ignored.
 Zero-point vibrational energy      76886.9 (Joules/Mol)
                                   18.37641 (Kcal/Mol)
 Warning -- explicit consideration of   1 degrees of freedom as
           vibrations may cause significant error
 Vibrational temperatures:    598.85  1277.95  1555.26  1876.51  2288.56
          (Kelvin)           2720.80  3099.95  5076.83

 Zero-point correction=                           0.029285 (Hartree/Particle)
 Thermal correction to Energy=                    0.032510
 Thermal correction to Enthalpy=                  0.033454
 Thermal correction to Gibbs Free Energy=         0.005009
 Sum of electronic and zero-point Energies=           -165.231575
 Sum of electronic and thermal Energies=              -165.228349
 Sum of electronic and thermal Enthalpies=            -165.227405
 Sum of electronic and thermal Free Energies=         -165.255850

                     E (Thermal)             CV                S
                      KCal/Mol        Cal/Mol-Kelvin    Cal/Mol-Kelvin
 Total                   20.400              8.435             59.868
 Electronic               0.000              0.000              1.377
 Translational            0.889              2.981             37.273
 Rotational               0.889              2.981             20.062
 Vibrational             18.623              2.473              1.156
 Vibration     1          0.779              1.435              0.905

 Normal termination of Gaussian 09 at Fri Apr 25 17:10:01 2014.
