 Output coordinates in angstroms (scale by  1.889725989 to convert to a.u.)

  No.       Tag          Charge          X              Y              Z
 ---- ---------------- ---------- -------------- -------------- --------------
    1 O                    8.0000     0.00000000     0.00000000    -0.14142136
    2 H                    1.0000     0.70710678     0.00000000     0.56568542
    3 H                    1.0000    -0.70710678     0.00000000     0.56568542

         Total SCF energy =    -74.653754521982

 Vector    2  Occ=1.000000D+00  E=-1.916007D+00

 Vector    3  Occ=1.000000D+00  E=-1.149299D+00

 Vector    4  Occ=1.000000D+00  E=-1.109267D+00

 Vector    5  Occ=1.000000D+00  E=-1.078029D+00

 Vector    6  Occ=0.000000D+00  E= 5.428280D-02

 Vector    7  Occ=0.000000D+00  E= 1.301391D-01

 Vector    2  Occ=1.000000D+00  E=-1.745306D+00

 Vector    3  Occ=1.000000D+00  E=-1.103355D+00

 Vector    4  Occ=1.000000D+00  E=-1.018020D+00

 Vector    5  Occ=0.000000D+00  E=-2.209946D-01

 Vector    6  Occ=0.000000D+00  E= 8.621295D-02

 Vector    7  Occ=0.000000D+00  E= 1.466234D-01

       Multipole analysis of the density wrt the origin
       ------------------------------------------------

     L   x y z        total         alpha         beta         nuclear
     -   - - -        -----         -----         ----         -------
     0   0 0 0      1.000000     -5.000000     -4.000000     10.000000

     1   1 0 0      0.000000      0.000000      0.000000      0.000000
     1   0 1 0     -0.000000      0.000000     -0.000000      0.000000
     1   0 0 1      1.081620      0.735741      0.345879      0.000000

     2   2 0 0     -2.197217     -2.920083     -2.848199      3.571064
     2   1 1 0      0.000000      0.000000     -0.000000      0.000000
     2   1 0 1      0.000000      0.000000      0.000000      0.000000
     2   0 2 0     -3.502709     -2.178709     -1.324000      0.000000
     2   0 1 1      0.000000      0.000000      0.000000      0.000000

 Zero-Point correction to Energy  =   14.908 kcal/mol  (  0.023757 au)
 Thermal correction to Energy     =   16.685 kcal/mol  (  0.026590 au)
 Thermal correction to Enthalpy   =   17.278 kcal/mol  (  0.027534 au)
 Total Entropy                    =   45.347 cal/mol-K
   - Translational                =   34.593 cal/mol-K (mol. weight =  18.0106)
   - Rotational                   =   10.752 cal/mol-K (symmetry #  =        2)
   - Vibrational                  =    0.003 cal/mol-K
   - Translational                  =    2.979 cal/mol-K
   - Rotational                     =    2.979 cal/mol-K
   - Vibrational                    =    0.022 cal/mol-K
 P.Frequency       -0.00        0.00        0.00        0.00        0.00        0.00
 P.Frequency     1835.13     4278.83     4319.32

 Normal Eigenvalue ||           Projected Infra Red Intensities
  Mode   [cm**-1]  || [atomic units] [(debye/angs)**2] [(KM/mol)] [arbitrary]
 ------ ---------- || -------------- ----------------- ---------- -----------
    1       -0.000 ||    0.052612           1.214        51.288       3.961
    2        0.000 ||    0.000006           0.000         0.005       0.000
    3        0.000 ||    0.252770           5.832       246.413      19.029
    4        0.000 ||    0.252770           5.832       246.413      19.029
    5        0.000 ||    0.080315           1.853        78.295       6.046
    6        0.000 ||    0.189794           4.379       185.020      14.288
    7     1835.128 ||    0.110459           2.548       107.681       8.316
    8     4278.826 ||    0.045979           1.061        44.823       3.461
    9     4319.317 ||    0.210794           4.863       205.493      15.869
 ----------------------------------------------------------------------------

 Total times  cpu:        0.1s     wall:        0.3s
